V -t * -v 1.0a5 -a 0
A -t * -n 1 -p 0 -o 0x7fffffff -c 30 -a 1
A -t * -h 1 -m 1073741823 -s 0
n -t * -a 0 -s 0 -S UP -v circle -c black -i black
n -t * -a 1 -s 1 -S UP -v circle -c black -i black
n -t * -a 2 -s 2 -S UP -v circle -c black -i black
l -t * -s 0 -d 1 -S UP -r 1000000 -D 0.01 -c black
l -t * -s 1 -d 2 -S UP -r 200000 -D 0.01 -c black
+ -t 0.2 -s 0 -d 1 -p cbr -e 100 -c 0 -i 0 -a 0 -x {0.0 2.0 0 ------- null}
- -t 0.2 -s 0 -d 1 -p cbr -e 100 -c 0 -i 0 -a 0 -x {0.0 2.0 0 ------- null}
h -t 0.2 -s 0 -d 1 -p cbr -e 100 -c 0 -i 0 -a 0 -x {0.0 2.0 -1 ------- null}
+ -t 0.2008 -s 0 -d 1 -p cbr -e 100 -c 0 -i 1 -a 0 -x {0.0 2.0 1 ------- null}
- -t 0.2008 -s 0 -d 1 -p cbr -e 100 -c 0 -i 1 -a 0 -x {0.0 2.0 1 ------- null}
h -t 0.2008 -s 0 -d 1 -p cbr -e 100 -c 0 -i 1 -a 0 -x {0.0 2.0 -1 ------- null}
+ -t 0.2016 -s 0 -d 1 -p cbr -e 100 -c 0 -i 2 -a 0 -x {0.0 2.0 2 ------- null}
- -t 0.2016 -s 0 -d 1 -p cbr -e 100 -c 0 -i 2 -a 0 -x {0.0 2.0 2 ------- null}
h -t 0.2016 -s 0 -d 1 -p cbr -e 100 -c 0 -i 2 -a 0 -x {0.0 2.0 -1 ------- null}
+ -t 0.2024 -s 0 -d 1 -p cbr -e 100 -c 0 -i 3 -a 0 -x {0.0 2.0 3 ------- null}
- -t 0.2024 -s 0 -d 1 -p cbr -e 100 -c 0 -i 3 -a 0 -x {0.0 2.0 3 ------- null}
h -t 0.2024 -s 0 -d 1 -p cbr -e 100 -c 0 -i 3 -a 0 -x {0.0 2.0 -1 ------- null}
+ -t 0.2032 -s 0 -d 1 -p cbr -e 100 -c 0 -i 4 -a 0 -x {0.0 2.0 4 ------- null}
- -t 0.2032 -s 0 -d 1 -p cbr -e 100 -c 0 -i 4 -a 0 -x {0.0 2.0 4 ------- null}
h -t 0.2032 -s 0 -d 1 -p cbr -e 100 -c 0 -i 4 -a 0 -x {0.0 2.0 -1 ------- null}
+ -t 0.204 -s 0 -d 1 -p cbr -e 100 -c 0 -i 5 -a 0 -x {0.0 2.0 5 ------- null}
- -t 0.204 -s 0 -d 1 -p cbr -e 100 -c 0 -i 5 -a 0 -x {0.0 2.0 5 ------- null}
h -t 0.204 -s 0 -d 1 -p cbr -e 100 -c 0 -i 5 -a 0 -x {0.0 2.0 -1 ------- null}
+ -t 0.2048 -s 0 -d 1 -p cbr -e 100 -c 0 -i 6 -a 0 -x {0.0 2.0 6 ------- null}
- -t 0.2048 -s 0 -d 1 -p cbr -e 100 -c 0 -i 6 -a 0 -x {0.0 2.0 6 ------- null}
h -t 0.2048 -s 0 -d 1 -p cbr -e 100 -c 0 -i 6 -a 0 -x {0.0 2.0 -1 ------- null}
+ -t 0.2056 -s 0 -d 1 -p cbr -e 100 -c 0 -i 7 -a 0 -x {0.0 2.0 7 ------- null}
- -t 0.2056 -s 0 -d 1 -p cbr -e 100 -c 0 -i 7 -a 0 -x {0.0 2.0 7 ------- null}
h -t 0.2056 -s 0 -d 1 -p cbr -e 100 -c 0 -i 7 -a 0 -x {0.0 2.0 -1 ------- null}
+ -t 0.2064 -s 0 -d 1 -p cbr -e 100 -c 0 -i 8 -a 0 -x {0.0 2.0 8 ------- null}
- -t 0.2064 -s 0 -d 1 -p cbr -e 100 -c 0 -i 8 -a 0 -x {0.0 2.0 8 ------- null}
h -t 0.2064 -s 0 -d 1 -p cbr -e 100 -c 0 -i 8 -a 0 -x {0.0 2.0 -1 ------- null}
+ -t 0.2072 -s 0 -d 1 -p cbr -e 100 -c 0 -i 9 -a 0 -x {0.0 2.0 9 ------- null}
- -t 0.2072 -s 0 -d 1 -p cbr -e 100 -c 0 -i 9 -a 0 -x {0.0 2.0 9 ------- null}
h -t 0.2072 -s 0 -d 1 -p cbr -e 100 -c 0 -i 9 -a 0 -x {0.0 2.0 -1 ------- null}
+ -t 0.208 -s 0 -d 1 -p cbr -e 100 -c 0 -i 10 -a 0 -x {0.0 2.0 10 ------- null}
- -t 0.208 -s 0 -d 1 -p cbr -e 100 -c 0 -i 10 -a 0 -x {0.0 2.0 10 ------- null}
h -t 0.208 -s 0 -d 1 -p cbr -e 100 -c 0 -i 10 -a 0 -x {0.0 2.0 -1 ------- null}
+ -t 0.2088 -s 0 -d 1 -p cbr -e 100 -c 0 -i 11 -a 0 -x {0.0 2.0 11 ------- null}
- -t 0.2088 -s 0 -d 1 -p cbr -e 100 -c 0 -i 11 -a 0 -x {0.0 2.0 11 ------- null}
h -t 0.2088 -s 0 -d 1 -p cbr -e 100 -c 0 -i 11 -a 0 -x {0.0 2.0 -1 ------- null}
+ -t 0.2096 -s 0 -d 1 -p cbr -e 100 -c 0 -i 12 -a 0 -x {0.0 2.0 12 ------- null}
- -t 0.2096 -s 0 -d 1 -p cbr -e 100 -c 0 -i 12 -a 0 -x {0.0 2.0 12 ------- null}
h -t 0.2096 -s 0 -d 1 -p cbr -e 100 -c 0 -i 12 -a 0 -x {0.0 2.0 -1 ------- null}
+ -t 0.2104 -s 0 -d 1 -p cbr -e 100 -c 0 -i 13 -a 0 -x {0.0 2.0 13 ------- null}
- -t 0.2104 -s 0 -d 1 -p cbr -e 100 -c 0 -i 13 -a 0 -x {0.0 2.0 13 ------- null}
h -t 0.2104 -s 0 -d 1 -p cbr -e 100 -c 0 -i 13 -a 0 -x {0.0 2.0 -1 ------- null}
r -t 0.2108 -s 0 -d 1 -p cbr -e 100 -c 0 -i 0 -a 0 -x {0.0 2.0 0 ------- null}
+ -t 0.2108 -s 1 -d 2 -p cbr -e 100 -c 0 -i 0 -a 0 -x {0.0 2.0 0 ------- null}
- -t 0.2108 -s 1 -d 2 -p cbr -e 100 -c 0 -i 0 -a 0 -x {0.0 2.0 0 ------- null}
h -t 0.2108 -s 1 -d 2 -p cbr -e 100 -c 0 -i 0 -a 0 -x {0.0 2.0 -1 ------- null}
+ -t 0.2112 -s 0 -d 1 -p cbr -e 100 -c 0 -i 14 -a 0 -x {0.0 2.0 14 ------- null}
- -t 0.2112 -s 0 -d 1 -p cbr -e 100 -c 0 -i 14 -a 0 -x {0.0 2.0 14 ------- null}
h -t 0.2112 -s 0 -d 1 -p cbr -e 100 -c 0 -i 14 -a 0 -x {0.0 2.0 -1 ------- null}
r -t 0.2116 -s 0 -d 1 -p cbr -e 100 -c 0 -i 1 -a 0 -x {0.0 2.0 1 ------- null}
+ -t 0.2116 -s 1 -d 2 -p cbr -e 100 -c 0 -i 1 -a 0 -x {0.0 2.0 1 ------- null}
+ -t 0.212 -s 0 -d 1 -p cbr -e 100 -c 0 -i 15 -a 0 -x {0.0 2.0 15 ------- null}
- -t 0.212 -s 0 -d 1 -p cbr -e 100 -c 0 -i 15 -a 0 -x {0.0 2.0 15 ------- null}
h -t 0.212 -s 0 -d 1 -p cbr -e 100 -c 0 -i 15 -a 0 -x {0.0 2.0 -1 ------- null}
r -t 0.2124 -s 0 -d 1 -p cbr -e 100 -c 0 -i 2 -a 0 -x {0.0 2.0 2 ------- null}
+ -t 0.2124 -s 1 -d 2 -p cbr -e 100 -c 0 -i 2 -a 0 -x {0.0 2.0 2 ------- null}
+ -t 0.2128 -s 0 -d 1 -p cbr -e 100 -c 0 -i 16 -a 0 -x {0.0 2.0 16 ------- null}
- -t 0.2128 -s 0 -d 1 -p cbr -e 100 -c 0 -i 16 -a 0 -x {0.0 2.0 16 ------- null}
h -t 0.2128 -s 0 -d 1 -p cbr -e 100 -c 0 -i 16 -a 0 -x {0.0 2.0 -1 ------- null}
r -t 0.2132 -s 0 -d 1 -p cbr -e 100 -c 0 -i 3 -a 0 -x {0.0 2.0 3 ------- null}
+ -t 0.2132 -s 1 -d 2 -p cbr -e 100 -c 0 -i 3 -a 0 -x {0.0 2.0 3 ------- null}
+ -t 0.2136 -s 0 -d 1 -p cbr -e 100 -c 0 -i 17 -a 0 -x {0.0 2.0 17 ------- null}
- -t 0.2136 -s 0 -d 1 -p cbr -e 100 -c 0 -i 17 -a 0 -x {0.0 2.0 17 ------- null}
h -t 0.2136 -s 0 -d 1 -p cbr -e 100 -c 0 -i 17 -a 0 -x {0.0 2.0 -1 ------- null}
r -t 0.214 -s 0 -d 1 -p cbr -e 100 -c 0 -i 4 -a 0 -x {0.0 2.0 4 ------- null}
+ -t 0.214 -s 1 -d 2 -p cbr -e 100 -c 0 -i 4 -a 0 -x {0.0 2.0 4 ------- null}
+ -t 0.2144 -s 0 -d 1 -p cbr -e 100 -c 0 -i 18 -a 0 -x {0.0 2.0 18 ------- null}
- -t 0.2144 -s 0 -d 1 -p cbr -e 100 -c 0 -i 18 -a 0 -x {0.0 2.0 18 ------- null}
h -t 0.2144 -s 0 -d 1 -p cbr -e 100 -c 0 -i 18 -a 0 -x {0.0 2.0 -1 ------- null}
r -t 0.2148 -s 0 -d 1 -p cbr -e 100 -c 0 -i 5 -a 0 -x {0.0 2.0 5 ------- null}
+ -t 0.2148 -s 1 -d 2 -p cbr -e 100 -c 0 -i 5 -a 0 -x {0.0 2.0 5 ------- null}
- -t 0.2148 -s 1 -d 2 -p cbr -e 100 -c 0 -i 1 -a 0 -x {0.0 2.0 1 ------- null}
h -t 0.2148 -s 1 -d 2 -p cbr -e 100 -c 0 -i 1 -a 0 -x {0.0 2.0 -1 ------- null}
+ -t 0.2152 -s 0 -d 1 -p cbr -e 100 -c 0 -i 19 -a 0 -x {0.0 2.0 19 ------- null}
- -t 0.2152 -s 0 -d 1 -p cbr -e 100 -c 0 -i 19 -a 0 -x {0.0 2.0 19 ------- null}
h -t 0.2152 -s 0 -d 1 -p cbr -e 100 -c 0 -i 19 -a 0 -x {0.0 2.0 -1 ------- null}
r -t 0.2156 -s 0 -d 1 -p cbr -e 100 -c 0 -i 6 -a 0 -x {0.0 2.0 6 ------- null}
+ -t 0.2156 -s 1 -d 2 -p cbr -e 100 -c 0 -i 6 -a 0 -x {0.0 2.0 6 ------- null}
+ -t 0.216 -s 0 -d 1 -p cbr -e 100 -c 0 -i 20 -a 0 -x {0.0 2.0 20 ------- null}
- -t 0.216 -s 0 -d 1 -p cbr -e 100 -c 0 -i 20 -a 0 -x {0.0 2.0 20 ------- null}
h -t 0.216 -s 0 -d 1 -p cbr -e 100 -c 0 -i 20 -a 0 -x {0.0 2.0 -1 ------- null}
r -t 0.2164 -s 0 -d 1 -p cbr -e 100 -c 0 -i 7 -a 0 -x {0.0 2.0 7 ------- null}
+ -t 0.2164 -s 1 -d 2 -p cbr -e 100 -c 0 -i 7 -a 0 -x {0.0 2.0 7 ------- null}
+ -t 0.2168 -s 0 -d 1 -p cbr -e 100 -c 0 -i 21 -a 0 -x {0.0 2.0 21 ------- null}
- -t 0.2168 -s 0 -d 1 -p cbr -e 100 -c 0 -i 21 -a 0 -x {0.0 2.0 21 ------- null}
h -t 0.2168 -s 0 -d 1 -p cbr -e 100 -c 0 -i 21 -a 0 -x {0.0 2.0 -1 ------- null}
r -t 0.2172 -s 0 -d 1 -p cbr -e 100 -c 0 -i 8 -a 0 -x {0.0 2.0 8 ------- null}
+ -t 0.2172 -s 1 -d 2 -p cbr -e 100 -c 0 -i 8 -a 0 -x {0.0 2.0 8 ------- null}
+ -t 0.2176 -s 0 -d 1 -p cbr -e 100 -c 0 -i 22 -a 0 -x {0.0 2.0 22 ------- null}
- -t 0.2176 -s 0 -d 1 -p cbr -e 100 -c 0 -i 22 -a 0 -x {0.0 2.0 22 ------- null}
h -t 0.2176 -s 0 -d 1 -p cbr -e 100 -c 0 -i 22 -a 0 -x {0.0 2.0 -1 ------- null}
r -t 0.218 -s 0 -d 1 -p cbr -e 100 -c 0 -i 9 -a 0 -x {0.0 2.0 9 ------- null}
+ -t 0.218 -s 1 -d 2 -p cbr -e 100 -c 0 -i 9 -a 0 -x {0.0 2.0 9 ------- null}
+ -t 0.2184 -s 0 -d 1 -p cbr -e 100 -c 0 -i 23 -a 0 -x {0.0 2.0 23 ------- null}
- -t 0.2184 -s 0 -d 1 -p cbr -e 100 -c 0 -i 23 -a 0 -x {0.0 2.0 23 ------- null}
h -t 0.2184 -s 0 -d 1 -p cbr -e 100 -c 0 -i 23 -a 0 -x {0.0 2.0 -1 ------- null}
r -t 0.2188 -s 0 -d 1 -p cbr -e 100 -c 0 -i 10 -a 0 -x {0.0 2.0 10 ------- null}
+ -t 0.2188 -s 1 -d 2 -p cbr -e 100 -c 0 -i 10 -a 0 -x {0.0 2.0 10 ------- null}
- -t 0.2188 -s 1 -d 2 -p cbr -e 100 -c 0 -i 2 -a 0 -x {0.0 2.0 2 ------- null}
h -t 0.2188 -s 1 -d 2 -p cbr -e 100 -c 0 -i 2 -a 0 -x {0.0 2.0 -1 ------- null}
+ -t 0.2192 -s 0 -d 1 -p cbr -e 100 -c 0 -i 24 -a 0 -x {0.0 2.0 24 ------- null}
- -t 0.2192 -s 0 -d 1 -p cbr -e 100 -c 0 -i 24 -a 0 -x {0.0 2.0 24 ------- null}
h -t 0.2192 -s 0 -d 1 -p cbr -e 100 -c 0 -i 24 -a 0 -x {0.0 2.0 -1 ------- null}
r -t 0.2196 -s 0 -d 1 -p cbr -e 100 -c 0 -i 11 -a 0 -x {0.0 2.0 11 ------- null}
+ -t 0.2196 -s 1 -d 2 -p cbr -e 100 -c 0 -i 11 -a 0 -x {0.0 2.0 11 ------- null}
+ -t 0.22 -s 0 -d 1 -p cbr -e 100 -c 0 -i 25 -a 0 -x {0.0 2.0 25 ------- null}
- -t 0.22 -s 0 -d 1 -p cbr -e 100 -c 0 -i 25 -a 0 -x {0.0 2.0 25 ------- null}
h -t 0.22 -s 0 -d 1 -p cbr -e 100 -c 0 -i 25 -a 0 -x {0.0 2.0 -1 ------- null}
r -t 0.2204 -s 0 -d 1 -p cbr -e 100 -c 0 -i 12 -a 0 -x {0.0 2.0 12 ------- null}
+ -t 0.2204 -s 1 -d 2 -p cbr -e 100 -c 0 -i 12 -a 0 -x {0.0 2.0 12 ------- null}
d -t 0.2204 -s 1 -d 2 -p cbr -e 100 -c 0 -i 12 -a 0 -x {0.0 2.0 12 ------- null}
+ -t 0.2208 -s 0 -d 1 -p cbr -e 100 -c 0 -i 26 -a 0 -x {0.0 2.0 26 ------- null}
- -t 0.2208 -s 0 -d 1 -p cbr -e 100 -c 0 -i 26 -a 0 -x {0.0 2.0 26 ------- null}
h -t 0.2208 -s 0 -d 1 -p cbr -e 100 -c 0 -i 26 -a 0 -x {0.0 2.0 -1 ------- null}
r -t 0.2212 -s 0 -d 1 -p cbr -e 100 -c 0 -i 13 -a 0 -x {0.0 2.0 13 ------- null}
+ -t 0.2212 -s 1 -d 2 -p cbr -e 100 -c 0 -i 13 -a 0 -x {0.0 2.0 13 ------- null}
d -t 0.2212 -s 1 -d 2 -p cbr -e 100 -c 0 -i 13 -a 0 -x {0.0 2.0 13 ------- null}
+ -t 0.2216 -s 0 -d 1 -p cbr -e 100 -c 0 -i 27 -a 0 -x {0.0 2.0 27 ------- null}
- -t 0.2216 -s 0 -d 1 -p cbr -e 100 -c 0 -i 27 -a 0 -x {0.0 2.0 27 ------- null}
h -t 0.2216 -s 0 -d 1 -p cbr -e 100 -c 0 -i 27 -a 0 -x {0.0 2.0 -1 ------- null}
r -t 0.222 -s 0 -d 1 -p cbr -e 100 -c 0 -i 14 -a 0 -x {0.0 2.0 14 ------- null}
+ -t 0.222 -s 1 -d 2 -p cbr -e 100 -c 0 -i 14 -a 0 -x {0.0 2.0 14 ------- null}
d -t 0.222 -s 1 -d 2 -p cbr -e 100 -c 0 -i 14 -a 0 -x {0.0 2.0 14 ------- null}
+ -t 0.2224 -s 0 -d 1 -p cbr -e 100 -c 0 -i 28 -a 0 -x {0.0 2.0 28 ------- null}
- -t 0.2224 -s 0 -d 1 -p cbr -e 100 -c 0 -i 28 -a 0 -x {0.0 2.0 28 ------- null}
h -t 0.2224 -s 0 -d 1 -p cbr -e 100 -c 0 -i 28 -a 0 -x {0.0 2.0 -1 ------- null}
r -t 0.2228 -s 0 -d 1 -p cbr -e 100 -c 0 -i 15 -a 0 -x {0.0 2.0 15 ------- null}
+ -t 0.2228 -s 1 -d 2 -p cbr -e 100 -c 0 -i 15 -a 0 -x {0.0 2.0 15 ------- null}
d -t 0.2228 -s 1 -d 2 -p cbr -e 100 -c 0 -i 15 -a 0 -x {0.0 2.0 15 ------- null}
- -t 0.2228 -s 1 -d 2 -p cbr -e 100 -c 0 -i 3 -a 0 -x {0.0 2.0 3 ------- null}
h -t 0.2228 -s 1 -d 2 -p cbr -e 100 -c 0 -i 3 -a 0 -x {0.0 2.0 -1 ------- null}
+ -t 0.2232 -s 0 -d 1 -p cbr -e 100 -c 0 -i 29 -a 0 -x {0.0 2.0 29 ------- null}
- -t 0.2232 -s 0 -d 1 -p cbr -e 100 -c 0 -i 29 -a 0 -x {0.0 2.0 29 ------- null}
h -t 0.2232 -s 0 -d 1 -p cbr -e 100 -c 0 -i 29 -a 0 -x {0.0 2.0 -1 ------- null}
r -t 0.2236 -s 0 -d 1 -p cbr -e 100 -c 0 -i 16 -a 0 -x {0.0 2.0 16 ------- null}
+ -t 0.2236 -s 1 -d 2 -p cbr -e 100 -c 0 -i 16 -a 0 -x {0.0 2.0 16 ------- null}
+ -t 0.224 -s 0 -d 1 -p cbr -e 100 -c 0 -i 30 -a 0 -x {0.0 2.0 30 ------- null}
- -t 0.224 -s 0 -d 1 -p cbr -e 100 -c 0 -i 30 -a 0 -x {0.0 2.0 30 ------- null}
h -t 0.224 -s 0 -d 1 -p cbr -e 100 -c 0 -i 30 -a 0 -x {0.0 2.0 -1 ------- null}
r -t 0.2244 -s 0 -d 1 -p cbr -e 100 -c 0 -i 17 -a 0 -x {0.0 2.0 17 ------- null}
+ -t 0.2244 -s 1 -d 2 -p cbr -e 100 -c 0 -i 17 -a 0 -x {0.0 2.0 17 ------- null}
d -t 0.2244 -s 1 -d 2 -p cbr -e 100 -c 0 -i 17 -a 0 -x {0.0 2.0 17 ------- null}
+ -t 0.2248 -s 0 -d 1 -p cbr -e 100 -c 0 -i 31 -a 0 -x {0.0 2.0 31 ------- null}
- -t 0.2248 -s 0 -d 1 -p cbr -e 100 -c 0 -i 31 -a 0 -x {0.0 2.0 31 ------- null}
h -t 0.2248 -s 0 -d 1 -p cbr -e 100 -c 0 -i 31 -a 0 -x {0.0 2.0 -1 ------- null}
r -t 0.2248 -s 1 -d 2 -p cbr -e 100 -c 0 -i 0 -a 0 -x {0.0 2.0 0 ------- null}
r -t 0.2252 -s 0 -d 1 -p cbr -e 100 -c 0 -i 18 -a 0 -x {0.0 2.0 18 ------- null}
+ -t 0.2252 -s 1 -d 2 -p cbr -e 100 -c 0 -i 18 -a 0 -x {0.0 2.0 18 ------- null}
d -t 0.2252 -s 1 -d 2 -p cbr -e 100 -c 0 -i 18 -a 0 -x {0.0 2.0 18 ------- null}
+ -t 0.2256 -s 0 -d 1 -p cbr -e 100 -c 0 -i 32 -a 0 -x {0.0 2.0 32 ------- null}
- -t 0.2256 -s 0 -d 1 -p cbr -e 100 -c 0 -i 32 -a 0 -x {0.0 2.0 32 ------- null}
h -t 0.2256 -s 0 -d 1 -p cbr -e 100 -c 0 -i 32 -a 0 -x {0.0 2.0 -1 ------- null}
r -t 0.226 -s 0 -d 1 -p cbr -e 100 -c 0 -i 19 -a 0 -x {0.0 2.0 19 ------- null}
+ -t 0.226 -s 1 -d 2 -p cbr -e 100 -c 0 -i 19 -a 0 -x {0.0 2.0 19 ------- null}
d -t 0.226 -s 1 -d 2 -p cbr -e 100 -c 0 -i 19 -a 0 -x {0.0 2.0 19 ------- null}
+ -t 0.2264 -s 0 -d 1 -p cbr -e 100 -c 0 -i 33 -a 0 -x {0.0 2.0 33 ------- null}
- -t 0.2264 -s 0 -d 1 -p cbr -e 100 -c 0 -i 33 -a 0 -x {0.0 2.0 33 ------- null}
h -t 0.2264 -s 0 -d 1 -p cbr -e 100 -c 0 -i 33 -a 0 -x {0.0 2.0 -1 ------- null}
r -t 0.2268 -s 0 -d 1 -p cbr -e 100 -c 0 -i 20 -a 0 -x {0.0 2.0 20 ------- null}
+ -t 0.2268 -s 1 -d 2 -p cbr -e 100 -c 0 -i 20 -a 0 -x {0.0 2.0 20 ------- null}
d -t 0.2268 -s 1 -d 2 -p cbr -e 100 -c 0 -i 20 -a 0 -x {0.0 2.0 20 ------- null}
- -t 0.2268 -s 1 -d 2 -p cbr -e 100 -c 0 -i 4 -a 0 -x {0.0 2.0 4 ------- null}
h -t 0.2268 -s 1 -d 2 -p cbr -e 100 -c 0 -i 4 -a 0 -x {0.0 2.0 -1 ------- null}
+ -t 0.2272 -s 0 -d 1 -p cbr -e 100 -c 0 -i 34 -a 0 -x {0.0 2.0 34 ------- null}
- -t 0.2272 -s 0 -d 1 -p cbr -e 100 -c 0 -i 34 -a 0 -x {0.0 2.0 34 ------- null}
h -t 0.2272 -s 0 -d 1 -p cbr -e 100 -c 0 -i 34 -a 0 -x {0.0 2.0 -1 ------- null}
r -t 0.2276 -s 0 -d 1 -p cbr -e 100 -c 0 -i 21 -a 0 -x {0.0 2.0 21 ------- null}
+ -t 0.2276 -s 1 -d 2 -p cbr -e 100 -c 0 -i 21 -a 0 -x {0.0 2.0 21 ------- null}
+ -t 0.228 -s 0 -d 1 -p cbr -e 100 -c 0 -i 35 -a 0 -x {0.0 2.0 35 ------- null}
- -t 0.228 -s 0 -d 1 -p cbr -e 100 -c 0 -i 35 -a 0 -x {0.0 2.0 35 ------- null}
h -t 0.228 -s 0 -d 1 -p cbr -e 100 -c 0 -i 35 -a 0 -x {0.0 2.0 -1 ------- null}
r -t 0.2284 -s 0 -d 1 -p cbr -e 100 -c 0 -i 22 -a 0 -x {0.0 2.0 22 ------- null}
+ -t 0.2284 -s 1 -d 2 -p cbr -e 100 -c 0 -i 22 -a 0 -x {0.0 2.0 22 ------- null}
d -t 0.2284 -s 1 -d 2 -p cbr -e 100 -c 0 -i 22 -a 0 -x {0.0 2.0 22 ------- null}
+ -t 0.2288 -s 0 -d 1 -p cbr -e 100 -c 0 -i 36 -a 0 -x {0.0 2.0 36 ------- null}
- -t 0.2288 -s 0 -d 1 -p cbr -e 100 -c 0 -i 36 -a 0 -x {0.0 2.0 36 ------- null}
h -t 0.2288 -s 0 -d 1 -p cbr -e 100 -c 0 -i 36 -a 0 -x {0.0 2.0 -1 ------- null}
r -t 0.2288 -s 1 -d 2 -p cbr -e 100 -c 0 -i 1 -a 0 -x {0.0 2.0 1 ------- null}
r -t 0.2292 -s 0 -d 1 -p cbr -e 100 -c 0 -i 23 -a 0 -x {0.0 2.0 23 ------- null}
+ -t 0.2292 -s 1 -d 2 -p cbr -e 100 -c 0 -i 23 -a 0 -x {0.0 2.0 23 ------- null}
d -t 0.2292 -s 1 -d 2 -p cbr -e 100 -c 0 -i 23 -a 0 -x {0.0 2.0 23 ------- null}
+ -t 0.2296 -s 0 -d 1 -p cbr -e 100 -c 0 -i 37 -a 0 -x {0.0 2.0 37 ------- null}
- -t 0.2296 -s 0 -d 1 -p cbr -e 100 -c 0 -i 37 -a 0 -x {0.0 2.0 37 ------- null}
h -t 0.2296 -s 0 -d 1 -p cbr -e 100 -c 0 -i 37 -a 0 -x {0.0 2.0 -1 ------- null}
r -t 0.23 -s 0 -d 1 -p cbr -e 100 -c 0 -i 24 -a 0 -x {0.0 2.0 24 ------- null}
+ -t 0.23 -s 1 -d 2 -p cbr -e 100 -c 0 -i 24 -a 0 -x {0.0 2.0 24 ------- null}
d -t 0.23 -s 1 -d 2 -p cbr -e 100 -c 0 -i 24 -a 0 -x {0.0 2.0 24 ------- null}
+ -t 0.2304 -s 0 -d 1 -p cbr -e 100 -c 0 -i 38 -a 0 -x {0.0 2.0 38 ------- null}
- -t 0.2304 -s 0 -d 1 -p cbr -e 100 -c 0 -i 38 -a 0 -x {0.0 2.0 38 ------- null}
h -t 0.2304 -s 0 -d 1 -p cbr -e 100 -c 0 -i 38 -a 0 -x {0.0 2.0 -1 ------- null}
r -t 0.2308 -s 0 -d 1 -p cbr -e 100 -c 0 -i 25 -a 0 -x {0.0 2.0 25 ------- null}
+ -t 0.2308 -s 1 -d 2 -p cbr -e 100 -c 0 -i 25 -a 0 -x {0.0 2.0 25 ------- null}
d -t 0.2308 -s 1 -d 2 -p cbr -e 100 -c 0 -i 25 -a 0 -x {0.0 2.0 25 ------- null}
- -t 0.2308 -s 1 -d 2 -p cbr -e 100 -c 0 -i 5 -a 0 -x {0.0 2.0 5 ------- null}
h -t 0.2308 -s 1 -d 2 -p cbr -e 100 -c 0 -i 5 -a 0 -x {0.0 2.0 -1 ------- null}
+ -t 0.2312 -s 0 -d 1 -p cbr -e 100 -c 0 -i 39 -a 0 -x {0.0 2.0 39 ------- null}
- -t 0.2312 -s 0 -d 1 -p cbr -e 100 -c 0 -i 39 -a 0 -x {0.0 2.0 39 ------- null}
h -t 0.2312 -s 0 -d 1 -p cbr -e 100 -c 0 -i 39 -a 0 -x {0.0 2.0 -1 ------- null}
r -t 0.2316 -s 0 -d 1 -p cbr -e 100 -c 0 -i 26 -a 0 -x {0.0 2.0 26 ------- null}
+ -t 0.2316 -s 1 -d 2 -p cbr -e 100 -c 0 -i 26 -a 0 -x {0.0 2.0 26 ------- null}
+ -t 0.232 -s 0 -d 1 -p cbr -e 100 -c 0 -i 40 -a 0 -x {0.0 2.0 40 ------- null}
- -t 0.232 -s 0 -d 1 -p cbr -e 100 -c 0 -i 40 -a 0 -x {0.0 2.0 40 ------- null}
h -t 0.232 -s 0 -d 1 -p cbr -e 100 -c 0 -i 40 -a 0 -x {0.0 2.0 -1 ------- null}
r -t 0.2324 -s 0 -d 1 -p cbr -e 100 -c 0 -i 27 -a 0 -x {0.0 2.0 27 ------- null}
+ -t 0.2324 -s 1 -d 2 -p cbr -e 100 -c 0 -i 27 -a 0 -x {0.0 2.0 27 ------- null}
d -t 0.2324 -s 1 -d 2 -p cbr -e 100 -c 0 -i 27 -a 0 -x {0.0 2.0 27 ------- null}
+ -t 0.2328 -s 0 -d 1 -p cbr -e 100 -c 0 -i 41 -a 0 -x {0.0 2.0 41 ------- null}
- -t 0.2328 -s 0 -d 1 -p cbr -e 100 -c 0 -i 41 -a 0 -x {0.0 2.0 41 ------- null}
h -t 0.2328 -s 0 -d 1 -p cbr -e 100 -c 0 -i 41 -a 0 -x {0.0 2.0 -1 ------- null}
r -t 0.2328 -s 1 -d 2 -p cbr -e 100 -c 0 -i 2 -a 0 -x {0.0 2.0 2 ------- null}
r -t 0.2332 -s 0 -d 1 -p cbr -e 100 -c 0 -i 28 -a 0 -x {0.0 2.0 28 ------- null}
+ -t 0.2332 -s 1 -d 2 -p cbr -e 100 -c 0 -i 28 -a 0 -x {0.0 2.0 28 ------- null}
d -t 0.2332 -s 1 -d 2 -p cbr -e 100 -c 0 -i 28 -a 0 -x {0.0 2.0 28 ------- null}
+ -t 0.2336 -s 0 -d 1 -p cbr -e 100 -c 0 -i 42 -a 0 -x {0.0 2.0 42 ------- null}
- -t 0.2336 -s 0 -d 1 -p cbr -e 100 -c 0 -i 42 -a 0 -x {0.0 2.0 42 ------- null}
h -t 0.2336 -s 0 -d 1 -p cbr -e 100 -c 0 -i 42 -a 0 -x {0.0 2.0 -1 ------- null}
r -t 0.234 -s 0 -d 1 -p cbr -e 100 -c 0 -i 29 -a 0 -x {0.0 2.0 29 ------- null}
+ -t 0.234 -s 1 -d 2 -p cbr -e 100 -c 0 -i 29 -a 0 -x {0.0 2.0 29 ------- null}
d -t 0.234 -s 1 -d 2 -p cbr -e 100 -c 0 -i 29 -a 0 -x {0.0 2.0 29 ------- null}
+ -t 0.2344 -s 0 -d 1 -p cbr -e 100 -c 0 -i 43 -a 0 -x {0.0 2.0 43 ------- null}
- -t 0.2344 -s 0 -d 1 -p cbr -e 100 -c 0 -i 43 -a 0 -x {0.0 2.0 43 ------- null}
h -t 0.2344 -s 0 -d 1 -p cbr -e 100 -c 0 -i 43 -a 0 -x {0.0 2.0 -1 ------- null}
r -t 0.2348 -s 0 -d 1 -p cbr -e 100 -c 0 -i 30 -a 0 -x {0.0 2.0 30 ------- null}
+ -t 0.2348 -s 1 -d 2 -p cbr -e 100 -c 0 -i 30 -a 0 -x {0.0 2.0 30 ------- null}
d -t 0.2348 -s 1 -d 2 -p cbr -e 100 -c 0 -i 30 -a 0 -x {0.0 2.0 30 ------- null}
- -t 0.2348 -s 1 -d 2 -p cbr -e 100 -c 0 -i 6 -a 0 -x {0.0 2.0 6 ------- null}
h -t 0.2348 -s 1 -d 2 -p cbr -e 100 -c 0 -i 6 -a 0 -x {0.0 2.0 -1 ------- null}
+ -t 0.2352 -s 0 -d 1 -p cbr -e 100 -c 0 -i 44 -a 0 -x {0.0 2.0 44 ------- null}
- -t 0.2352 -s 0 -d 1 -p cbr -e 100 -c 0 -i 44 -a 0 -x {0.0 2.0 44 ------- null}
h -t 0.2352 -s 0 -d 1 -p cbr -e 100 -c 0 -i 44 -a 0 -x {0.0 2.0 -1 ------- null}
r -t 0.2356 -s 0 -d 1 -p cbr -e 100 -c 0 -i 31 -a 0 -x {0.0 2.0 31 ------- null}
+ -t 0.2356 -s 1 -d 2 -p cbr -e 100 -c 0 -i 31 -a 0 -x {0.0 2.0 31 ------- null}
+ -t 0.236 -s 0 -d 1 -p cbr -e 100 -c 0 -i 45 -a 0 -x {0.0 2.0 45 ------- null}
- -t 0.236 -s 0 -d 1 -p cbr -e 100 -c 0 -i 45 -a 0 -x {0.0 2.0 45 ------- null}
h -t 0.236 -s 0 -d 1 -p cbr -e 100 -c 0 -i 45 -a 0 -x {0.0 2.0 -1 ------- null}
r -t 0.2364 -s 0 -d 1 -p cbr -e 100 -c 0 -i 32 -a 0 -x {0.0 2.0 32 ------- null}
+ -t 0.2364 -s 1 -d 2 -p cbr -e 100 -c 0 -i 32 -a 0 -x {0.0 2.0 32 ------- null}
d -t 0.2364 -s 1 -d 2 -p cbr -e 100 -c 0 -i 32 -a 0 -x {0.0 2.0 32 ------- null}
+ -t 0.2368 -s 0 -d 1 -p cbr -e 100 -c 0 -i 46 -a 0 -x {0.0 2.0 46 ------- null}
- -t 0.2368 -s 0 -d 1 -p cbr -e 100 -c 0 -i 46 -a 0 -x {0.0 2.0 46 ------- null}
h -t 0.2368 -s 0 -d 1 -p cbr -e 100 -c 0 -i 46 -a 0 -x {0.0 2.0 -1 ------- null}
r -t 0.2368 -s 1 -d 2 -p cbr -e 100 -c 0 -i 3 -a 0 -x {0.0 2.0 3 ------- null}
r -t 0.2372 -s 0 -d 1 -p cbr -e 100 -c 0 -i 33 -a 0 -x {0.0 2.0 33 ------- null}
+ -t 0.2372 -s 1 -d 2 -p cbr -e 100 -c 0 -i 33 -a 0 -x {0.0 2.0 33 ------- null}
d -t 0.2372 -s 1 -d 2 -p cbr -e 100 -c 0 -i 33 -a 0 -x {0.0 2.0 33 ------- null}
+ -t 0.2376 -s 0 -d 1 -p cbr -e 100 -c 0 -i 47 -a 0 -x {0.0 2.0 47 ------- null}
- -t 0.2376 -s 0 -d 1 -p cbr -e 100 -c 0 -i 47 -a 0 -x {0.0 2.0 47 ------- null}
h -t 0.2376 -s 0 -d 1 -p cbr -e 100 -c 0 -i 47 -a 0 -x {0.0 2.0 -1 ------- null}
r -t 0.238 -s 0 -d 1 -p cbr -e 100 -c 0 -i 34 -a 0 -x {0.0 2.0 34 ------- null}
+ -t 0.238 -s 1 -d 2 -p cbr -e 100 -c 0 -i 34 -a 0 -x {0.0 2.0 34 ------- null}
d -t 0.238 -s 1 -d 2 -p cbr -e 100 -c 0 -i 34 -a 0 -x {0.0 2.0 34 ------- null}
+ -t 0.2384 -s 0 -d 1 -p cbr -e 100 -c 0 -i 48 -a 0 -x {0.0 2.0 48 ------- null}
- -t 0.2384 -s 0 -d 1 -p cbr -e 100 -c 0 -i 48 -a 0 -x {0.0 2.0 48 ------- null}
h -t 0.2384 -s 0 -d 1 -p cbr -e 100 -c 0 -i 48 -a 0 -x {0.0 2.0 -1 ------- null}
r -t 0.2388 -s 0 -d 1 -p cbr -e 100 -c 0 -i 35 -a 0 -x {0.0 2.0 35 ------- null}
+ -t 0.2388 -s 1 -d 2 -p cbr -e 100 -c 0 -i 35 -a 0 -x {0.0 2.0 35 ------- null}
d -t 0.2388 -s 1 -d 2 -p cbr -e 100 -c 0 -i 35 -a 0 -x {0.0 2.0 35 ------- null}
- -t 0.2388 -s 1 -d 2 -p cbr -e 100 -c 0 -i 7 -a 0 -x {0.0 2.0 7 ------- null}
h -t 0.2388 -s 1 -d 2 -p cbr -e 100 -c 0 -i 7 -a 0 -x {0.0 2.0 -1 ------- null}
+ -t 0.2392 -s 0 -d 1 -p cbr -e 100 -c 0 -i 49 -a 0 -x {0.0 2.0 49 ------- null}
- -t 0.2392 -s 0 -d 1 -p cbr -e 100 -c 0 -i 49 -a 0 -x {0.0 2.0 49 ------- null}
h -t 0.2392 -s 0 -d 1 -p cbr -e 100 -c 0 -i 49 -a 0 -x {0.0 2.0 -1 ------- null}
r -t 0.2396 -s 0 -d 1 -p cbr -e 100 -c 0 -i 36 -a 0 -x {0.0 2.0 36 ------- null}
+ -t 0.2396 -s 1 -d 2 -p cbr -e 100 -c 0 -i 36 -a 0 -x {0.0 2.0 36 ------- null}
+ -t 0.24 -s 0 -d 1 -p cbr -e 100 -c 0 -i 50 -a 0 -x {0.0 2.0 50 ------- null}
- -t 0.24 -s 0 -d 1 -p cbr -e 100 -c 0 -i 50 -a 0 -x {0.0 2.0 50 ------- null}
h -t 0.24 -s 0 -d 1 -p cbr -e 100 -c 0 -i 50 -a 0 -x {0.0 2.0 -1 ------- null}
r -t 0.2404 -s 0 -d 1 -p cbr -e 100 -c 0 -i 37 -a 0 -x {0.0 2.0 37 ------- null}
+ -t 0.2404 -s 1 -d 2 -p cbr -e 100 -c 0 -i 37 -a 0 -x {0.0 2.0 37 ------- null}
d -t 0.2404 -s 1 -d 2 -p cbr -e 100 -c 0 -i 37 -a 0 -x {0.0 2.0 37 ------- null}
+ -t 0.2408 -s 0 -d 1 -p cbr -e 100 -c 0 -i 51 -a 0 -x {0.0 2.0 51 ------- null}
- -t 0.2408 -s 0 -d 1 -p cbr -e 100 -c 0 -i 51 -a 0 -x {0.0 2.0 51 ------- null}
h -t 0.2408 -s 0 -d 1 -p cbr -e 100 -c 0 -i 51 -a 0 -x {0.0 2.0 -1 ------- null}
r -t 0.2408 -s 1 -d 2 -p cbr -e 100 -c 0 -i 4 -a 0 -x {0.0 2.0 4 ------- null}
r -t 0.2412 -s 0 -d 1 -p cbr -e 100 -c 0 -i 38 -a 0 -x {0.0 2.0 38 ------- null}
+ -t 0.2412 -s 1 -d 2 -p cbr -e 100 -c 0 -i 38 -a 0 -x {0.0 2.0 38 ------- null}
d -t 0.2412 -s 1 -d 2 -p cbr -e 100 -c 0 -i 38 -a 0 -x {0.0 2.0 38 ------- null}
+ -t 0.2416 -s 0 -d 1 -p cbr -e 100 -c 0 -i 52 -a 0 -x {0.0 2.0 52 ------- null}
- -t 0.2416 -s 0 -d 1 -p cbr -e 100 -c 0 -i 52 -a 0 -x {0.0 2.0 52 ------- null}
h -t 0.2416 -s 0 -d 1 -p cbr -e 100 -c 0 -i 52 -a 0 -x {0.0 2.0 -1 ------- null}
r -t 0.242 -s 0 -d 1 -p cbr -e 100 -c 0 -i 39 -a 0 -x {0.0 2.0 39 ------- null}
+ -t 0.242 -s 1 -d 2 -p cbr -e 100 -c 0 -i 39 -a 0 -x {0.0 2.0 39 ------- null}
d -t 0.242 -s 1 -d 2 -p cbr -e 100 -c 0 -i 39 -a 0 -x {0.0 2.0 39 ------- null}
+ -t 0.2424 -s 0 -d 1 -p cbr -e 100 -c 0 -i 53 -a 0 -x {0.0 2.0 53 ------- null}
- -t 0.2424 -s 0 -d 1 -p cbr -e 100 -c 0 -i 53 -a 0 -x {0.0 2.0 53 ------- null}
h -t 0.2424 -s 0 -d 1 -p cbr -e 100 -c 0 -i 53 -a 0 -x {0.0 2.0 -1 ------- null}
r -t 0.2428 -s 0 -d 1 -p cbr -e 100 -c 0 -i 40 -a 0 -x {0.0 2.0 40 ------- null}
+ -t 0.2428 -s 1 -d 2 -p cbr -e 100 -c 0 -i 40 -a 0 -x {0.0 2.0 40 ------- null}
d -t 0.2428 -s 1 -d 2 -p cbr -e 100 -c 0 -i 40 -a 0 -x {0.0 2.0 40 ------- null}
- -t 0.2428 -s 1 -d 2 -p cbr -e 100 -c 0 -i 8 -a 0 -x {0.0 2.0 8 ------- null}
h -t 0.2428 -s 1 -d 2 -p cbr -e 100 -c 0 -i 8 -a 0 -x {0.0 2.0 -1 ------- null}
+ -t 0.2432 -s 0 -d 1 -p cbr -e 100 -c 0 -i 54 -a 0 -x {0.0 2.0 54 ------- null}
- -t 0.2432 -s 0 -d 1 -p cbr -e 100 -c 0 -i 54 -a 0 -x {0.0 2.0 54 ------- null}
h -t 0.2432 -s 0 -d 1 -p cbr -e 100 -c 0 -i 54 -a 0 -x {0.0 2.0 -1 ------- null}
r -t 0.2436 -s 0 -d 1 -p cbr -e 100 -c 0 -i 41 -a 0 -x {0.0 2.0 41 ------- null}
+ -t 0.2436 -s 1 -d 2 -p cbr -e 100 -c 0 -i 41 -a 0 -x {0.0 2.0 41 ------- null}
+ -t 0.244 -s 0 -d 1 -p cbr -e 100 -c 0 -i 55 -a 0 -x {0.0 2.0 55 ------- null}
- -t 0.244 -s 0 -d 1 -p cbr -e 100 -c 0 -i 55 -a 0 -x {0.0 2.0 55 ------- null}
h -t 0.244 -s 0 -d 1 -p cbr -e 100 -c 0 -i 55 -a 0 -x {0.0 2.0 -1 ------- null}
r -t 0.2444 -s 0 -d 1 -p cbr -e 100 -c 0 -i 42 -a 0 -x {0.0 2.0 42 ------- null}
+ -t 0.2444 -s 1 -d 2 -p cbr -e 100 -c 0 -i 42 -a 0 -x {0.0 2.0 42 ------- null}
d -t 0.2444 -s 1 -d 2 -p cbr -e 100 -c 0 -i 42 -a 0 -x {0.0 2.0 42 ------- null}
+ -t 0.2448 -s 0 -d 1 -p cbr -e 100 -c 0 -i 56 -a 0 -x {0.0 2.0 56 ------- null}
- -t 0.2448 -s 0 -d 1 -p cbr -e 100 -c 0 -i 56 -a 0 -x {0.0 2.0 56 ------- null}
h -t 0.2448 -s 0 -d 1 -p cbr -e 100 -c 0 -i 56 -a 0 -x {0.0 2.0 -1 ------- null}
r -t 0.2448 -s 1 -d 2 -p cbr -e 100 -c 0 -i 5 -a 0 -x {0.0 2.0 5 ------- null}
r -t 0.2452 -s 0 -d 1 -p cbr -e 100 -c 0 -i 43 -a 0 -x {0.0 2.0 43 ------- null}
+ -t 0.2452 -s 1 -d 2 -p cbr -e 100 -c 0 -i 43 -a 0 -x {0.0 2.0 43 ------- null}
d -t 0.2452 -s 1 -d 2 -p cbr -e 100 -c 0 -i 43 -a 0 -x {0.0 2.0 43 ------- null}
+ -t 0.2456 -s 0 -d 1 -p cbr -e 100 -c 0 -i 57 -a 0 -x {0.0 2.0 57 ------- null}
- -t 0.2456 -s 0 -d 1 -p cbr -e 100 -c 0 -i 57 -a 0 -x {0.0 2.0 57 ------- null}
h -t 0.2456 -s 0 -d 1 -p cbr -e 100 -c 0 -i 57 -a 0 -x {0.0 2.0 -1 ------- null}
r -t 0.246 -s 0 -d 1 -p cbr -e 100 -c 0 -i 44 -a 0 -x {0.0 2.0 44 ------- null}
+ -t 0.246 -s 1 -d 2 -p cbr -e 100 -c 0 -i 44 -a 0 -x {0.0 2.0 44 ------- null}
d -t 0.246 -s 1 -d 2 -p cbr -e 100 -c 0 -i 44 -a 0 -x {0.0 2.0 44 ------- null}
+ -t 0.2464 -s 0 -d 1 -p cbr -e 100 -c 0 -i 58 -a 0 -x {0.0 2.0 58 ------- null}
- -t 0.2464 -s 0 -d 1 -p cbr -e 100 -c 0 -i 58 -a 0 -x {0.0 2.0 58 ------- null}
h -t 0.2464 -s 0 -d 1 -p cbr -e 100 -c 0 -i 58 -a 0 -x {0.0 2.0 -1 ------- null}
r -t 0.2468 -s 0 -d 1 -p cbr -e 100 -c 0 -i 45 -a 0 -x {0.0 2.0 45 ------- null}
+ -t 0.2468 -s 1 -d 2 -p cbr -e 100 -c 0 -i 45 -a 0 -x {0.0 2.0 45 ------- null}
d -t 0.2468 -s 1 -d 2 -p cbr -e 100 -c 0 -i 45 -a 0 -x {0.0 2.0 45 ------- null}
- -t 0.2468 -s 1 -d 2 -p cbr -e 100 -c 0 -i 9 -a 0 -x {0.0 2.0 9 ------- null}
h -t 0.2468 -s 1 -d 2 -p cbr -e 100 -c 0 -i 9 -a 0 -x {0.0 2.0 -1 ------- null}
+ -t 0.2472 -s 0 -d 1 -p cbr -e 100 -c 0 -i 59 -a 0 -x {0.0 2.0 59 ------- null}
- -t 0.2472 -s 0 -d 1 -p cbr -e 100 -c 0 -i 59 -a 0 -x {0.0 2.0 59 ------- null}
h -t 0.2472 -s 0 -d 1 -p cbr -e 100 -c 0 -i 59 -a 0 -x {0.0 2.0 -1 ------- null}
r -t 0.2476 -s 0 -d 1 -p cbr -e 100 -c 0 -i 46 -a 0 -x {0.0 2.0 46 ------- null}
+ -t 0.2476 -s 1 -d 2 -p cbr -e 100 -c 0 -i 46 -a 0 -x {0.0 2.0 46 ------- null}
+ -t 0.248 -s 0 -d 1 -p cbr -e 100 -c 0 -i 60 -a 0 -x {0.0 2.0 60 ------- null}
- -t 0.248 -s 0 -d 1 -p cbr -e 100 -c 0 -i 60 -a 0 -x {0.0 2.0 60 ------- null}
h -t 0.248 -s 0 -d 1 -p cbr -e 100 -c 0 -i 60 -a 0 -x {0.0 2.0 -1 ------- null}
r -t 0.2484 -s 0 -d 1 -p cbr -e 100 -c 0 -i 47 -a 0 -x {0.0 2.0 47 ------- null}
+ -t 0.2484 -s 1 -d 2 -p cbr -e 100 -c 0 -i 47 -a 0 -x {0.0 2.0 47 ------- null}
d -t 0.2484 -s 1 -d 2 -p cbr -e 100 -c 0 -i 47 -a 0 -x {0.0 2.0 47 ------- null}
+ -t 0.2488 -s 0 -d 1 -p cbr -e 100 -c 0 -i 61 -a 0 -x {0.0 2.0 61 ------- null}
- -t 0.2488 -s 0 -d 1 -p cbr -e 100 -c 0 -i 61 -a 0 -x {0.0 2.0 61 ------- null}
h -t 0.2488 -s 0 -d 1 -p cbr -e 100 -c 0 -i 61 -a 0 -x {0.0 2.0 -1 ------- null}
r -t 0.2488 -s 1 -d 2 -p cbr -e 100 -c 0 -i 6 -a 0 -x {0.0 2.0 6 ------- null}
r -t 0.2492 -s 0 -d 1 -p cbr -e 100 -c 0 -i 48 -a 0 -x {0.0 2.0 48 ------- null}
+ -t 0.2492 -s 1 -d 2 -p cbr -e 100 -c 0 -i 48 -a 0 -x {0.0 2.0 48 ------- null}
d -t 0.2492 -s 1 -d 2 -p cbr -e 100 -c 0 -i 48 -a 0 -x {0.0 2.0 48 ------- null}
+ -t 0.2496 -s 0 -d 1 -p cbr -e 100 -c 0 -i 62 -a 0 -x {0.0 2.0 62 ------- null}
- -t 0.2496 -s 0 -d 1 -p cbr -e 100 -c 0 -i 62 -a 0 -x {0.0 2.0 62 ------- null}
h -t 0.2496 -s 0 -d 1 -p cbr -e 100 -c 0 -i 62 -a 0 -x {0.0 2.0 -1 ------- null}
r -t 0.25 -s 0 -d 1 -p cbr -e 100 -c 0 -i 49 -a 0 -x {0.0 2.0 49 ------- null}
+ -t 0.25 -s 1 -d 2 -p cbr -e 100 -c 0 -i 49 -a 0 -x {0.0 2.0 49 ------- null}
d -t 0.25 -s 1 -d 2 -p cbr -e 100 -c 0 -i 49 -a 0 -x {0.0 2.0 49 ------- null}
+ -t 0.2504 -s 0 -d 1 -p cbr -e 100 -c 0 -i 63 -a 0 -x {0.0 2.0 63 ------- null}
- -t 0.2504 -s 0 -d 1 -p cbr -e 100 -c 0 -i 63 -a 0 -x {0.0 2.0 63 ------- null}
h -t 0.2504 -s 0 -d 1 -p cbr -e 100 -c 0 -i 63 -a 0 -x {0.0 2.0 -1 ------- null}
r -t 0.2508 -s 0 -d 1 -p cbr -e 100 -c 0 -i 50 -a 0 -x {0.0 2.0 50 ------- null}
+ -t 0.2508 -s 1 -d 2 -p cbr -e 100 -c 0 -i 50 -a 0 -x {0.0 2.0 50 ------- null}
d -t 0.2508 -s 1 -d 2 -p cbr -e 100 -c 0 -i 50 -a 0 -x {0.0 2.0 50 ------- null}
- -t 0.2508 -s 1 -d 2 -p cbr -e 100 -c 0 -i 10 -a 0 -x {0.0 2.0 10 ------- null}
h -t 0.2508 -s 1 -d 2 -p cbr -e 100 -c 0 -i 10 -a 0 -x {0.0 2.0 -1 ------- null}
+ -t 0.2512 -s 0 -d 1 -p cbr -e 100 -c 0 -i 64 -a 0 -x {0.0 2.0 64 ------- null}
- -t 0.2512 -s 0 -d 1 -p cbr -e 100 -c 0 -i 64 -a 0 -x {0.0 2.0 64 ------- null}
h -t 0.2512 -s 0 -d 1 -p cbr -e 100 -c 0 -i 64 -a 0 -x {0.0 2.0 -1 ------- null}
r -t 0.2516 -s 0 -d 1 -p cbr -e 100 -c 0 -i 51 -a 0 -x {0.0 2.0 51 ------- null}
+ -t 0.2516 -s 1 -d 2 -p cbr -e 100 -c 0 -i 51 -a 0 -x {0.0 2.0 51 ------- null}
+ -t 0.252 -s 0 -d 1 -p cbr -e 100 -c 0 -i 65 -a 0 -x {0.0 2.0 65 ------- null}
- -t 0.252 -s 0 -d 1 -p cbr -e 100 -c 0 -i 65 -a 0 -x {0.0 2.0 65 ------- null}
h -t 0.252 -s 0 -d 1 -p cbr -e 100 -c 0 -i 65 -a 0 -x {0.0 2.0 -1 ------- null}
r -t 0.2524 -s 0 -d 1 -p cbr -e 100 -c 0 -i 52 -a 0 -x {0.0 2.0 52 ------- null}
+ -t 0.2524 -s 1 -d 2 -p cbr -e 100 -c 0 -i 52 -a 0 -x {0.0 2.0 52 ------- null}
d -t 0.2524 -s 1 -d 2 -p cbr -e 100 -c 0 -i 52 -a 0 -x {0.0 2.0 52 ------- null}
+ -t 0.2528 -s 0 -d 1 -p cbr -e 100 -c 0 -i 66 -a 0 -x {0.0 2.0 66 ------- null}
- -t 0.2528 -s 0 -d 1 -p cbr -e 100 -c 0 -i 66 -a 0 -x {0.0 2.0 66 ------- null}