V -t * -v 1.0a5 -a 0
A -t * -n 1 -p 0 -o 0x7fffffff -c 30 -a 1
A -t * -h 1 -m 1073741823 -s 0
n -t * -a 4 -s 4 -S UP -v circle -c black -i black
n -t * -a 0 -s 0 -S UP -v circle -c black -i black
n -t * -a 5 -s 5 -S UP -v circle -c black -i black
n -t * -a 1 -s 1 -S UP -v circle -c black -i black
n -t * -a 2 -s 2 -S UP -v circle -c black -i black
n -t * -a 3 -s 3 -S UP -v circle -c black -i black
X -t * -n 6 -r 1Mb -D 10ms -o left
L -t * -s 6 -d 0 -o up
L -t * -s 6 -d 1 -o down
L -t * -s 6 -d 2 -o up
L -t * -s 6 -d 3 -o down
L -t * -s 6 -d 4 -o up
L -t * -s 6 -d 5 -o down
h -t 0 -s 0 -d 6 -p tcp -e 40 -c 0 -i 0 -a 0 -x {0.0 5.0 0 ------- null}
+ -t 0.01 -s 0 -d 6 -p tcp -e 40 -c 0 -i 0 -a 0 -x {0.0 5.0 0 ------- null}
- -t 0.01 -s 0 -d 6 -p tcp -e 40 -c 0 -i 0 -a 0 -x {0.0 5.0 0 ------- null}
h -t 0.01 -s 0 -d 6 -p tcp -e 40 -c 0 -i 0 -a 0 -x {0.0 5.0 -1 ------- null}
d -t 0.010004 -s 4 -d 6 -p tcp -e 40 -c 0 -i 0 -a 0 -x {0.0 5.0 0 ------- null}
d -t 0.010004 -s 3 -d 6 -p tcp -e 40 -c 0 -i 0 -a 0 -x {0.0 5.0 0 ------- null}
d -t 0.010004 -s 2 -d 6 -p tcp -e 40 -c 0 -i 0 -a 0 -x {0.0 5.0 0 ------- null}
d -t 0.010004 -s 1 -d 6 -p tcp -e 40 -c 0 -i 0 -a 0 -x {0.0 5.0 0 ------- null}
r -t 0.020004 -s 6 -d 5 -p tcp -e 40 -c 0 -i 0 -a 0 -x {0.0 5.0 0 ------- null}
h -t 0.020004 -s 5 -d 6 -p ack -e 40 -c 0 -i 1 -a 0 -x {5.0 0.0 0 ------- null}
+ -t 0.030004 -s 5 -d 6 -p ack -e 40 -c 0 -i 1 -a 0 -x {5.0 0.0 0 ------- null}
- -t 0.030004 -s 5 -d 6 -p ack -e 40 -c 0 -i 1 -a 0 -x {5.0 0.0 0 ------- null}
h -t 0.030004 -s 5 -d 6 -p ack -e 40 -c 0 -i 1 -a 0 -x {5.0 0.0 -1 ------- null}
d -t 0.030008 -s 4 -d 6 -p ack -e 40 -c 0 -i 1 -a 0 -x {5.0 0.0 0 ------- null}
d -t 0.030008 -s 3 -d 6 -p ack -e 40 -c 0 -i 1 -a 0 -x {5.0 0.0 0 ------- null}
d -t 0.030008 -s 2 -d 6 -p ack -e 40 -c 0 -i 1 -a 0 -x {5.0 0.0 0 ------- null}
d -t 0.030008 -s 1 -d 6 -p ack -e 40 -c 0 -i 1 -a 0 -x {5.0 0.0 0 ------- null}
r -t 0.040008 -s 6 -d 0 -p ack -e 40 -c 0 -i 1 -a 0 -x {5.0 0.0 0 ------- null}
h -t 0.040008 -s 0 -d 6 -p tcp -e 1040 -c 0 -i 2 -a 0 -x {0.0 5.0 1 ------- null}
h -t 0.040008 -s 0 -d 6 -p tcp -e 1040 -c 0 -i 3 -a 0 -x {0.0 5.0 2 ------- null}
+ -t 0.050008 -s 0 -d 6 -p tcp -e 1040 -c 0 -i 2 -a 0 -x {0.0 5.0 1 ------- null}
- -t 0.050008 -s 0 -d 6 -p tcp -e 1040 -c 0 -i 2 -a 0 -x {0.0 5.0 1 ------- null}
h -t 0.050008 -s 0 -d 6 -p tcp -e 1040 -c 0 -i 2 -a 0 -x {0.0 5.0 -1 ------- null}
+ -t 0.050008 -s 0 -d 6 -p tcp -e 1040 -c 0 -i 3 -a 0 -x {0.0 5.0 2 ------- null}
d -t 0.050012 -s 4 -d 6 -p tcp -e 1040 -c 0 -i 2 -a 0 -x {0.0 5.0 1 ------- null}
d -t 0.050012 -s 3 -d 6 -p tcp -e 1040 -c 0 -i 2 -a 0 -x {0.0 5.0 1 ------- null}
d -t 0.050012 -s 2 -d 6 -p tcp -e 1040 -c 0 -i 2 -a 0 -x {0.0 5.0 1 ------- null}
d -t 0.050012 -s 1 -d 6 -p tcp -e 1040 -c 0 -i 2 -a 0 -x {0.0 5.0 1 ------- null}
- -t 0.054424 -s 0 -d 6 -p tcp -e 1040 -c 0 -i 3 -a 0 -x {0.0 5.0 2 ------- null}
h -t 0.054424 -s 0 -d 6 -p tcp -e 1040 -c 0 -i 3 -a 0 -x {0.0 5.0 -1 ------- null}
d -t 0.054428 -s 4 -d 6 -p tcp -e 1040 -c 0 -i 3 -a 0 -x {0.0 5.0 2 ------- null}
d -t 0.054428 -s 3 -d 6 -p tcp -e 1040 -c 0 -i 3 -a 0 -x {0.0 5.0 2 ------- null}
d -t 0.054428 -s 2 -d 6 -p tcp -e 1040 -c 0 -i 3 -a 0 -x {0.0 5.0 2 ------- null}
d -t 0.054428 -s 1 -d 6 -p tcp -e 1040 -c 0 -i 3 -a 0 -x {0.0 5.0 2 ------- null}
r -t 0.060012 -s 6 -d 5 -p tcp -e 1040 -c 0 -i 2 -a 0 -x {0.0 5.0 1 ------- null}
h -t 0.060012 -s 5 -d 6 -p ack -e 40 -c 0 -i 4 -a 0 -x {5.0 0.0 1 ------- null}
r -t 0.064428 -s 6 -d 5 -p tcp -e 1040 -c 0 -i 3 -a 0 -x {0.0 5.0 2 ------- null}
h -t 0.064428 -s 5 -d 6 -p ack -e 40 -c 0 -i 5 -a 0 -x {5.0 0.0 2 ------- null}
+ -t 0.070012 -s 5 -d 6 -p ack -e 40 -c 0 -i 4 -a 0 -x {5.0 0.0 1 ------- null}
- -t 0.070012 -s 5 -d 6 -p ack -e 40 -c 0 -i 4 -a 0 -x {5.0 0.0 1 ------- null}
h -t 0.070012 -s 5 -d 6 -p ack -e 40 -c 0 -i 4 -a 0 -x {5.0 0.0 -1 ------- null}
d -t 0.070016 -s 4 -d 6 -p ack -e 40 -c 0 -i 4 -a 0 -x {5.0 0.0 1 ------- null}
d -t 0.070016 -s 3 -d 6 -p ack -e 40 -c 0 -i 4 -a 0 -x {5.0 0.0 1 ------- null}
d -t 0.070016 -s 2 -d 6 -p ack -e 40 -c 0 -i 4 -a 0 -x {5.0 0.0 1 ------- null}
d -t 0.070016 -s 1 -d 6 -p ack -e 40 -c 0 -i 4 -a 0 -x {5.0 0.0 1 ------- null}
+ -t 0.074428 -s 5 -d 6 -p ack -e 40 -c 0 -i 5 -a 0 -x {5.0 0.0 2 ------- null}
- -t 0.074428 -s 5 -d 6 -p ack -e 40 -c 0 -i 5 -a 0 -x {5.0 0.0 2 ------- null}
h -t 0.074428 -s 5 -d 6 -p ack -e 40 -c 0 -i 5 -a 0 -x {5.0 0.0 -1 ------- null}
d -t 0.074432 -s 4 -d 6 -p ack -e 40 -c 0 -i 5 -a 0 -x {5.0 0.0 2 ------- null}
d -t 0.074432 -s 3 -d 6 -p ack -e 40 -c 0 -i 5 -a 0 -x {5.0 0.0 2 ------- null}
d -t 0.074432 -s 2 -d 6 -p ack -e 40 -c 0 -i 5 -a 0 -x {5.0 0.0 2 ------- null}
d -t 0.074432 -s 1 -d 6 -p ack -e 40 -c 0 -i 5 -a 0 -x {5.0 0.0 2 ------- null}
r -t 0.080016 -s 6 -d 0 -p ack -e 40 -c 0 -i 4 -a 0 -x {5.0 0.0 1 ------- null}
h -t 0.080016 -s 0 -d 6 -p tcp -e 1040 -c 0 -i 6 -a 0 -x {0.0 5.0 3 ------- null}
h -t 0.080016 -s 0 -d 6 -p tcp -e 1040 -c 0 -i 7 -a 0 -x {0.0 5.0 4 ------- null}
r -t 0.084432 -s 6 -d 0 -p ack -e 40 -c 0 -i 5 -a 0 -x {5.0 0.0 2 ------- null}
h -t 0.084432 -s 0 -d 6 -p tcp -e 1040 -c 0 -i 8 -a 0 -x {0.0 5.0 5 ------- null}
h -t 0.084432 -s 0 -d 6 -p tcp -e 1040 -c 0 -i 9 -a 0 -x {0.0 5.0 6 ------- null}
+ -t 0.090016 -s 0 -d 6 -p tcp -e 1040 -c 0 -i 6 -a 0 -x {0.0 5.0 3 ------- null}
- -t 0.090016 -s 0 -d 6 -p tcp -e 1040 -c 0 -i 6 -a 0 -x {0.0 5.0 3 ------- null}
h -t 0.090016 -s 0 -d 6 -p tcp -e 1040 -c 0 -i 6 -a 0 -x {0.0 5.0 -1 ------- null}
+ -t 0.090016 -s 0 -d 6 -p tcp -e 1040 -c 0 -i 7 -a 0 -x {0.0 5.0 4 ------- null}
d -t 0.09002 -s 4 -d 6 -p tcp -e 1040 -c 0 -i 6 -a 0 -x {0.0 5.0 3 ------- null}
d -t 0.09002 -s 3 -d 6 -p tcp -e 1040 -c 0 -i 6 -a 0 -x {0.0 5.0 3 ------- null}
d -t 0.09002 -s 2 -d 6 -p tcp -e 1040 -c 0 -i 6 -a 0 -x {0.0 5.0 3 ------- null}
d -t 0.09002 -s 1 -d 6 -p tcp -e 1040 -c 0 -i 6 -a 0 -x {0.0 5.0 3 ------- null}
+ -t 0.094432 -s 0 -d 6 -p tcp -e 1040 -c 0 -i 8 -a 0 -x {0.0 5.0 5 ------- null}
+ -t 0.094432 -s 0 -d 6 -p tcp -e 1040 -c 0 -i 9 -a 0 -x {0.0 5.0 6 ------- null}
- -t 0.094432 -s 0 -d 6 -p tcp -e 1040 -c 0 -i 7 -a 0 -x {0.0 5.0 4 ------- null}
h -t 0.094432 -s 0 -d 6 -p tcp -e 1040 -c 0 -i 7 -a 0 -x {0.0 5.0 -1 ------- null}
d -t 0.094436 -s 4 -d 6 -p tcp -e 1040 -c 0 -i 7 -a 0 -x {0.0 5.0 4 ------- null}
d -t 0.094436 -s 3 -d 6 -p tcp -e 1040 -c 0 -i 7 -a 0 -x {0.0 5.0 4 ------- null}
d -t 0.094436 -s 2 -d 6 -p tcp -e 1040 -c 0 -i 7 -a 0 -x {0.0 5.0 4 ------- null}
d -t 0.094436 -s 1 -d 6 -p tcp -e 1040 -c 0 -i 7 -a 0 -x {0.0 5.0 4 ------- null}
- -t 0.098848 -s 0 -d 6 -p tcp -e 1040 -c 0 -i 8 -a 0 -x {0.0 5.0 5 ------- null}
h -t 0.098848 -s 0 -d 6 -p tcp -e 1040 -c 0 -i 8 -a 0 -x {0.0 5.0 -1 ------- null}
d -t 0.098852 -s 4 -d 6 -p tcp -e 1040 -c 0 -i 8 -a 0 -x {0.0 5.0 5 ------- null}
d -t 0.098852 -s 3 -d 6 -p tcp -e 1040 -c 0 -i 8 -a 0 -x {0.0 5.0 5 ------- null}
d -t 0.098852 -s 2 -d 6 -p tcp -e 1040 -c 0 -i 8 -a 0 -x {0.0 5.0 5 ------- null}
d -t 0.098852 -s 1 -d 6 -p tcp -e 1040 -c 0 -i 8 -a 0 -x {0.0 5.0 5 ------- null}
r -t 0.10002 -s 6 -d 5 -p tcp -e 1040 -c 0 -i 6 -a 0 -x {0.0 5.0 3 ------- null}
h -t 0.10002 -s 5 -d 6 -p ack -e 40 -c 0 -i 10 -a 0 -x {5.0 0.0 3 ------- null}
- -t 0.103264 -s 0 -d 6 -p tcp -e 1040 -c 0 -i 9 -a 0 -x {0.0 5.0 6 ------- null}
h -t 0.103264 -s 0 -d 6 -p tcp -e 1040 -c 0 -i 9 -a 0 -x {0.0 5.0 -1 ------- null}
d -t 0.103268 -s 4 -d 6 -p tcp -e 1040 -c 0 -i 9 -a 0 -x {0.0 5.0 6 ------- null}
d -t 0.103268 -s 3 -d 6 -p tcp -e 1040 -c 0 -i 9 -a 0 -x {0.0 5.0 6 ------- null}
d -t 0.103268 -s 2 -d 6 -p tcp -e 1040 -c 0 -i 9 -a 0 -x {0.0 5.0 6 ------- null}
d -t 0.103268 -s 1 -d 6 -p tcp -e 1040 -c 0 -i 9 -a 0 -x {0.0 5.0 6 ------- null}
r -t 0.104436 -s 6 -d 5 -p tcp -e 1040 -c 0 -i 7 -a 0 -x {0.0 5.0 4 ------- null}
h -t 0.104436 -s 5 -d 6 -p ack -e 40 -c 0 -i 11 -a 0 -x {5.0 0.0 4 ------- null}
r -t 0.108852 -s 6 -d 5 -p tcp -e 1040 -c 0 -i 8 -a 0 -x {0.0 5.0 5 ------- null}
h -t 0.108852 -s 5 -d 6 -p ack -e 40 -c 0 -i 12 -a 0 -x {5.0 0.0 5 ------- null}
+ -t 0.11002 -s 5 -d 6 -p ack -e 40 -c 0 -i 10 -a 0 -x {5.0 0.0 3 ------- null}
- -t 0.11002 -s 5 -d 6 -p ack -e 40 -c 0 -i 10 -a 0 -x {5.0 0.0 3 ------- null}
h -t 0.11002 -s 5 -d 6 -p ack -e 40 -c 0 -i 10 -a 0 -x {5.0 0.0 -1 ------- null}
d -t 0.110024 -s 4 -d 6 -p ack -e 40 -c 0 -i 10 -a 0 -x {5.0 0.0 3 ------- null}
d -t 0.110024 -s 3 -d 6 -p ack -e 40 -c 0 -i 10 -a 0 -x {5.0 0.0 3 ------- null}
d -t 0.110024 -s 2 -d 6 -p ack -e 40 -c 0 -i 10 -a 0 -x {5.0 0.0 3 ------- null}
d -t 0.110024 -s 1 -d 6 -p ack -e 40 -c 0 -i 10 -a 0 -x {5.0 0.0 3 ------- null}
r -t 0.113268 -s 6 -d 5 -p tcp -e 1040 -c 0 -i 9 -a 0 -x {0.0 5.0 6 ------- null}
h -t 0.113268 -s 5 -d 6 -p ack -e 40 -c 0 -i 13 -a 0 -x {5.0 0.0 6 ------- null}
+ -t 0.114436 -s 5 -d 6 -p ack -e 40 -c 0 -i 11 -a 0 -x {5.0 0.0 4 ------- null}
- -t 0.114436 -s 5 -d 6 -p ack -e 40 -c 0 -i 11 -a 0 -x {5.0 0.0 4 ------- null}
h -t 0.114436 -s 5 -d 6 -p ack -e 40 -c 0 -i 11 -a 0 -x {5.0 0.0 -1 ------- null}
d -t 0.11444 -s 4 -d 6 -p ack -e 40 -c 0 -i 11 -a 0 -x {5.0 0.0 4 ------- null}
d -t 0.11444 -s 3 -d 6 -p ack -e 40 -c 0 -i 11 -a 0 -x {5.0 0.0 4 ------- null}
d -t 0.11444 -s 2 -d 6 -p ack -e 40 -c 0 -i 11 -a 0 -x {5.0 0.0 4 ------- null}
d -t 0.11444 -s 1 -d 6 -p ack -e 40 -c 0 -i 11 -a 0 -x {5.0 0.0 4 ------- null}
+ -t 0.118852 -s 5 -d 6 -p ack -e 40 -c 0 -i 12 -a 0 -x {5.0 0.0 5 ------- null}
- -t 0.118852 -s 5 -d 6 -p ack -e 40 -c 0 -i 12 -a 0 -x {5.0 0.0 5 ------- null}
h -t 0.118852 -s 5 -d 6 -p ack -e 40 -c 0 -i 12 -a 0 -x {5.0 0.0 -1 ------- null}
d -t 0.118856 -s 4 -d 6 -p ack -e 40 -c 0 -i 12 -a 0 -x {5.0 0.0 5 ------- null}
d -t 0.118856 -s 3 -d 6 -p ack -e 40 -c 0 -i 12 -a 0 -x {5.0 0.0 5 ------- null}
d -t 0.118856 -s 2 -d 6 -p ack -e 40 -c 0 -i 12 -a 0 -x {5.0 0.0 5 ------- null}
d -t 0.118856 -s 1 -d 6 -p ack -e 40 -c 0 -i 12 -a 0 -x {5.0 0.0 5 ------- null}
r -t 0.120024 -s 6 -d 0 -p ack -e 40 -c 0 -i 10 -a 0 -x {5.0 0.0 3 ------- null}
h -t 0.120024 -s 0 -d 6 -p tcp -e 1040 -c 0 -i 14 -a 0 -x {0.0 5.0 7 ------- null}
h -t 0.120024 -s 0 -d 6 -p tcp -e 1040 -c 0 -i 15 -a 0 -x {0.0 5.0 8 ------- null}
+ -t 0.123268 -s 5 -d 6 -p ack -e 40 -c 0 -i 13 -a 0 -x {5.0 0.0 6 ------- null}
- -t 0.123268 -s 5 -d 6 -p ack -e 40 -c 0 -i 13 -a 0 -x {5.0 0.0 6 ------- null}
h -t 0.123268 -s 5 -d 6 -p ack -e 40 -c 0 -i 13 -a 0 -x {5.0 0.0 -1 ------- null}
d -t 0.123272 -s 4 -d 6 -p ack -e 40 -c 0 -i 13 -a 0 -x {5.0 0.0 6 ------- null}
d -t 0.123272 -s 3 -d 6 -p ack -e 40 -c 0 -i 13 -a 0 -x {5.0 0.0 6 ------- null}
d -t 0.123272 -s 2 -d 6 -p ack -e 40 -c 0 -i 13 -a 0 -x {5.0 0.0 6 ------- null}
d -t 0.123272 -s 1 -d 6 -p ack -e 40 -c 0 -i 13 -a 0 -x {5.0 0.0 6 ------- null}
r -t 0.12444 -s 6 -d 0 -p ack -e 40 -c 0 -i 11 -a 0 -x {5.0 0.0 4 ------- null}
h -t 0.12444 -s 0 -d 6 -p tcp -e 1040 -c 0 -i 16 -a 0 -x {0.0 5.0 9 ------- null}
h -t 0.12444 -s 0 -d 6 -p tcp -e 1040 -c 0 -i 17 -a 0 -x {0.0 5.0 10 ------- null}
r -t 0.128856 -s 6 -d 0 -p ack -e 40 -c 0 -i 12 -a 0 -x {5.0 0.0 5 ------- null}
h -t 0.128856 -s 0 -d 6 -p tcp -e 1040 -c 0 -i 18 -a 0 -x {0.0 5.0 11 ------- null}
h -t 0.128856 -s 0 -d 6 -p tcp -e 1040 -c 0 -i 19 -a 0 -x {0.0 5.0 12 ------- null}
+ -t 0.130024 -s 0 -d 6 -p tcp -e 1040 -c 0 -i 14 -a 0 -x {0.0 5.0 7 ------- null}
- -t 0.130024 -s 0 -d 6 -p tcp -e 1040 -c 0 -i 14 -a 0 -x {0.0 5.0 7 ------- null}
h -t 0.130024 -s 0 -d 6 -p tcp -e 1040 -c 0 -i 14 -a 0 -x {0.0 5.0 -1 ------- null}
+ -t 0.130024 -s 0 -d 6 -p tcp -e 1040 -c 0 -i 15 -a 0 -x {0.0 5.0 8 ------- null}
d -t 0.130028 -s 4 -d 6 -p tcp -e 1040 -c 0 -i 14 -a 0 -x {0.0 5.0 7 ------- null}
d -t 0.130028 -s 3 -d 6 -p tcp -e 1040 -c 0 -i 14 -a 0 -x {0.0 5.0 7 ------- null}
d -t 0.130028 -s 2 -d 6 -p tcp -e 1040 -c 0 -i 14 -a 0 -x {0.0 5.0 7 ------- null}
d -t 0.130028 -s 1 -d 6 -p tcp -e 1040 -c 0 -i 14 -a 0 -x {0.0 5.0 7 ------- null}
r -t 0.133272 -s 6 -d 0 -p ack -e 40 -c 0 -i 13 -a 0 -x {5.0 0.0 6 ------- null}
h -t 0.133272 -s 0 -d 6 -p tcp -e 1040 -c 0 -i 20 -a 0 -x {0.0 5.0 13 ------- null}
h -t 0.133272 -s 0 -d 6 -p tcp -e 1040 -c 0 -i 21 -a 0 -x {0.0 5.0 14 ------- null}
+ -t 0.13444 -s 0 -d 6 -p tcp -e 1040 -c 0 -i 16 -a 0 -x {0.0 5.0 9 ------- null}
+ -t 0.13444 -s 0 -d 6 -p tcp -e 1040 -c 0 -i 17 -a 0 -x {0.0 5.0 10 ------- null}
- -t 0.13444 -s 0 -d 6 -p tcp -e 1040 -c 0 -i 15 -a 0 -x {0.0 5.0 8 ------- null}
h -t 0.13444 -s 0 -d 6 -p tcp -e 1040 -c 0 -i 15 -a 0 -x {0.0 5.0 -1 ------- null}
d -t 0.134444 -s 4 -d 6 -p tcp -e 1040 -c 0 -i 15 -a 0 -x {0.0 5.0 8 ------- null}
d -t 0.134444 -s 3 -d 6 -p tcp -e 1040 -c 0 -i 15 -a 0 -x {0.0 5.0 8 ------- null}
d -t 0.134444 -s 2 -d 6 -p tcp -e 1040 -c 0 -i 15 -a 0 -x {0.0 5.0 8 ------- null}
d -t 0.134444 -s 1 -d 6 -p tcp -e 1040 -c 0 -i 15 -a 0 -x {0.0 5.0 8 ------- null}
+ -t 0.138856 -s 0 -d 6 -p tcp -e 1040 -c 0 -i 18 -a 0 -x {0.0 5.0 11 ------- null}
+ -t 0.138856 -s 0 -d 6 -p tcp -e 1040 -c 0 -i 19 -a 0 -x {0.0 5.0 12 ------- null}
- -t 0.138856 -s 0 -d 6 -p tcp -e 1040 -c 0 -i 16 -a 0 -x {0.0 5.0 9 ------- null}
h -t 0.138856 -s 0 -d 6 -p tcp -e 1040 -c 0 -i 16 -a 0 -x {0.0 5.0 -1 ------- null}
d -t 0.13886 -s 4 -d 6 -p tcp -e 1040 -c 0 -i 16 -a 0 -x {0.0 5.0 9 ------- null}
d -t 0.13886 -s 3 -d 6 -p tcp -e 1040 -c 0 -i 16 -a 0 -x {0.0 5.0 9 ------- null}
d -t 0.13886 -s 2 -d 6 -p tcp -e 1040 -c 0 -i 16 -a 0 -x {0.0 5.0 9 ------- null}
d -t 0.13886 -s 1 -d 6 -p tcp -e 1040 -c 0 -i 16 -a 0 -x {0.0 5.0 9 ------- null}
r -t 0.140028 -s 6 -d 5 -p tcp -e 1040 -c 0 -i 14 -a 0 -x {0.0 5.0 7 ------- null}
h -t 0.140028 -s 5 -d 6 -p ack -e 40 -c 0 -i 22 -a 0 -x {5.0 0.0 7 ------- null}
+ -t 0.143272 -s 0 -d 6 -p tcp -e 1040 -c 0 -i 20 -a 0 -x {0.0 5.0 13 ------- null}
+ -t 0.143272 -s 0 -d 6 -p tcp -e 1040 -c 0 -i 21 -a 0 -x {0.0 5.0 14 ------- null}
- -t 0.143272 -s 0 -d 6 -p tcp -e 1040 -c 0 -i 17 -a 0 -x {0.0 5.0 10 ------- null}
h -t 0.143272 -s 0 -d 6 -p tcp -e 1040 -c 0 -i 17 -a 0 -x {0.0 5.0 -1 ------- null}
d -t 0.143276 -s 4 -d 6 -p tcp -e 1040 -c 0 -i 17 -a 0 -x {0.0 5.0 10 ------- null}
d -t 0.143276 -s 3 -d 6 -p tcp -e 1040 -c 0 -i 17 -a 0 -x {0.0 5.0 10 ------- null}
d -t 0.143276 -s 2 -d 6 -p tcp -e 1040 -c 0 -i 17 -a 0 -x {0.0 5.0 10 ------- null}
d -t 0.143276 -s 1 -d 6 -p tcp -e 1040 -c 0 -i 17 -a 0 -x {0.0 5.0 10 ------- null}
r -t 0.144444 -s 6 -d 5 -p tcp -e 1040 -c 0 -i 15 -a 0 -x {0.0 5.0 8 ------- null}
h -t 0.144444 -s 5 -d 6 -p ack -e 40 -c 0 -i 23 -a 0 -x {5.0 0.0 8 ------- null}
- -t 0.147688 -s 0 -d 6 -p tcp -e 1040 -c 0 -i 18 -a 0 -x {0.0 5.0 11 ------- null}
h -t 0.147688 -s 0 -d 6 -p tcp -e 1040 -c 0 -i 18 -a 0 -x {0.0 5.0 -1 ------- null}
d -t 0.147692 -s 4 -d 6 -p tcp -e 1040 -c 0 -i 18 -a 0 -x {0.0 5.0 11 ------- null}
d -t 0.147692 -s 3 -d 6 -p tcp -e 1040 -c 0 -i 18 -a 0 -x {0.0 5.0 11 ------- null}
d -t 0.147692 -s 2 -d 6 -p tcp -e 1040 -c 0 -i 18 -a 0 -x {0.0 5.0 11 ------- null}
d -t 0.147692 -s 1 -d 6 -p tcp -e 1040 -c 0 -i 18 -a 0 -x {0.0 5.0 11 ------- null}
r -t 0.14886 -s 6 -d 5 -p tcp -e 1040 -c 0 -i 16 -a 0 -x {0.0 5.0 9 ------- null}
h -t 0.14886 -s 5 -d 6 -p ack -e 40 -c 0 -i 24 -a 0 -x {5.0 0.0 9 ------- null}
+ -t 0.150028 -s 5 -d 6 -p ack -e 40 -c 0 -i 22 -a 0 -x {5.0 0.0 7 ------- null}
- -t 0.150028 -s 5 -d 6 -p ack -e 40 -c 0 -i 22 -a 0 -x {5.0 0.0 7 ------- null}
h -t 0.150028 -s 5 -d 6 -p ack -e 40 -c 0 -i 22 -a 0 -x {5.0 0.0 -1 ------- null}
d -t 0.150032 -s 4 -d 6 -p ack -e 40 -c 0 -i 22 -a 0 -x {5.0 0.0 7 ------- null}
d -t 0.150032 -s 3 -d 6 -p ack -e 40 -c 0 -i 22 -a 0 -x {5.0 0.0 7 ------- null}
d -t 0.150032 -s 2 -d 6 -p ack -e 40 -c 0 -i 22 -a 0 -x {5.0 0.0 7 ------- null}
d -t 0.150032 -s 1 -d 6 -p ack -e 40 -c 0 -i 22 -a 0 -x {5.0 0.0 7 ------- null}
- -t 0.152104 -s 0 -d 6 -p tcp -e 1040 -c 0 -i 19 -a 0 -x {0.0 5.0 12 ------- null}
h -t 0.152104 -s 0 -d 6 -p tcp -e 1040 -c 0 -i 19 -a 0 -x {0.0 5.0 -1 ------- null}
d -t 0.152108 -s 4 -d 6 -p tcp -e 1040 -c 0 -i 19 -a 0 -x {0.0 5.0 12 ------- null}
d -t 0.152108 -s 3 -d 6 -p tcp -e 1040 -c 0 -i 19 -a 0 -x {0.0 5.0 12 ------- null}
d -t 0.152108 -s 2 -d 6 -p tcp -e 1040 -c 0 -i 19 -a 0 -x {0.0 5.0 12 ------- null}
d -t 0.152108 -s 1 -d 6 -p tcp -e 1040 -c 0 -i 19 -a 0 -x {0.0 5.0 12 ------- null}
r -t 0.153276 -s 6 -d 5 -p tcp -e 1040 -c 0 -i 17 -a 0 -x {0.0 5.0 10 ------- null}
h -t 0.153276 -s 5 -d 6 -p ack -e 40 -c 0 -i 25 -a 0 -x {5.0 0.0 10 ------- null}
+ -t 0.154444 -s 5 -d 6 -p ack -e 40 -c 0 -i 23 -a 0 -x {5.0 0.0 8 ------- null}
- -t 0.154444 -s 5 -d 6 -p ack -e 40 -c 0 -i 23 -a 0 -x {5.0 0.0 8 ------- null}
h -t 0.154444 -s 5 -d 6 -p ack -e 40 -c 0 -i 23 -a 0 -x {5.0 0.0 -1 ------- null}
d -t 0.154448 -s 4 -d 6 -p ack -e 40 -c 0 -i 23 -a 0 -x {5.0 0.0 8 ------- null}
d -t 0.154448 -s 3 -d 6 -p ack -e 40 -c 0 -i 23 -a 0 -x {5.0 0.0 8 ------- null}
d -t 0.154448 -s 2 -d 6 -p ack -e 40 -c 0 -i 23 -a 0 -x {5.0 0.0 8 ------- null}
d -t 0.154448 -s 1 -d 6 -p ack -e 40 -c 0 -i 23 -a 0 -x {5.0 0.0 8 ------- null}
- -t 0.15652 -s 0 -d 6 -p tcp -e 1040 -c 0 -i 20 -a 0 -x {0.0 5.0 13 ------- null}
h -t 0.15652 -s 0 -d 6 -p tcp -e 1040 -c 0 -i 20 -a 0 -x {0.0 5.0 -1 ------- null}
d -t 0.156524 -s 4 -d 6 -p tcp -e 1040 -c 0 -i 20 -a 0 -x {0.0 5.0 13 ------- null}
d -t 0.156524 -s 3 -d 6 -p tcp -e 1040 -c 0 -i 20 -a 0 -x {0.0 5.0 13 ------- null}
d -t 0.156524 -s 2 -d 6 -p tcp -e 1040 -c 0 -i 20 -a 0 -x {0.0 5.0 13 ------- null}
d -t 0.156524 -s 1 -d 6 -p tcp -e 1040 -c 0 -i 20 -a 0 -x {0.0 5.0 13 ------- null}
r -t 0.157692 -s 6 -d 5 -p tcp -e 1040 -c 0 -i 18 -a 0 -x {0.0 5.0 11 ------- null}
h -t 0.157692 -s 5 -d 6 -p ack -e 40 -c 0 -i 26 -a 0 -x {5.0 0.0 11 ------- null}
+ -t 0.15886 -s 5 -d 6 -p ack -e 40 -c 0 -i 24 -a 0 -x {5.0 0.0 9 ------- null}
- -t 0.15886 -s 5 -d 6 -p ack -e 40 -c 0 -i 24 -a 0 -x {5.0 0.0 9 ------- null}
h -t 0.15886 -s 5 -d 6 -p ack -e 40 -c 0 -i 24 -a 0 -x {5.0 0.0 -1 ------- null}
d -t 0.158864 -s 4 -d 6 -p ack -e 40 -c 0 -i 24 -a 0 -x {5.0 0.0 9 ------- null}
d -t 0.158864 -s 3 -d 6 -p ack -e 40 -c 0 -i 24 -a 0 -x {5.0 0.0 9 ------- null}
d -t 0.158864 -s 2 -d 6 -p ack -e 40 -c 0 -i 24 -a 0 -x {5.0 0.0 9 ------- null}
d -t 0.158864 -s 1 -d 6 -p ack -e 40 -c 0 -i 24 -a 0 -x {5.0 0.0 9 ------- null}
r -t 0.160032 -s 6 -d 0 -p ack -e 40 -c 0 -i 22 -a 0 -x {5.0 0.0 7 ------- null}
h -t 0.160032 -s 0 -d 6 -p tcp -e 1040 -c 0 -i 27 -a 0 -x {0.0 5.0 15 ------- null}
h -t 0.160032 -s 0 -d 6 -p tcp -e 1040 -c 0 -i 28 -a 0 -x {0.0 5.0 16 ------- null}
- -t 0.160936 -s 0 -d 6 -p tcp -e 1040 -c 0 -i 21 -a 0 -x {0.0 5.0 14 ------- null}
h -t 0.160936 -s 0 -d 6 -p tcp -e 1040 -c 0 -i 21 -a 0 -x {0.0 5.0 -1 ------- null}
d -t 0.16094 -s 4 -d 6 -p tcp -e 1040 -c 0 -i 21 -a 0 -x {0.0 5.0 14 ------- null}
d -t 0.16094 -s 3 -d 6 -p tcp -e 1040 -c 0 -i 21 -a 0 -x {0.0 5.0 14 ------- null}
d -t 0.16094 -s 2 -d 6 -p tcp -e 1040 -c 0 -i 21 -a 0 -x {0.0 5.0 14 ------- null}
d -t 0.16094 -s 1 -d 6 -p tcp -e 1040 -c 0 -i 21 -a 0 -x {0.0 5.0 14 ------- null}
r -t 0.162108 -s 6 -d 5 -p tcp -e 1040 -c 0 -i 19 -a 0 -x {0.0 5.0 12 ------- null}
h -t 0.162108 -s 5 -d 6 -p ack -e 40 -c 0 -i 29 -a 0 -x {5.0 0.0 12 ------- null}
+ -t 0.163276 -s 5 -d 6 -p ack -e 40 -c 0 -i 25 -a 0 -x {5.0 0.0 10 ------- null}
- -t 0.163276 -s 5 -d 6 -p ack -e 40 -c 0 -i 25 -a 0 -x {5.0 0.0 10 ------- null}
h -t 0.163276 -s 5 -d 6 -p ack -e 40 -c 0 -i 25 -a 0 -x {5.0 0.0 -1 ------- null}
d -t 0.16328 -s 4 -d 6 -p ack -e 40 -c 0 -i 25 -a 0 -x {5.0 0.0 10 ------- null}
d -t 0.16328 -s 3 -d 6 -p ack -e 40 -c 0 -i 25 -a 0 -x {5.0 0.0 10 ------- null}
d -t 0.16328 -s 2 -d 6 -p ack -e 40 -c 0 -i 25 -a 0 -x {5.0 0.0 10 ------- null}
d -t 0.16328 -s 1 -d 6 -p ack -e 40 -c 0 -i 25 -a 0 -x {5.0 0.0 10 ------- null}
r -t 0.164448 -s 6 -d 0 -p ack -e 40 -c 0 -i 23 -a 0 -x {5.0 0.0 8 ------- null}
h -t 0.164448 -s 0 -d 6 -p tcp -e 1040 -c 0 -i 30 -a 0 -x {0.0 5.0 17 ------- null}
h -t 0.164448 -s 0 -d 6 -p tcp -e 1040 -c 0 -i 31 -a 0 -x {0.0 5.0 18 ------- null}
r -t 0.166524 -s 6 -d 5 -p tcp -e 1040 -c 0 -i 20 -a 0 -x {0.0 5.0 13 ------- null}
h -t 0.166524 -s 5 -d 6 -p ack -e 40 -c 0 -i 32 -a 0 -x {5.0 0.0 13 ------- null}
+ -t 0.167692 -s 5 -d 6 -p ack -e 40 -c 0 -i 26 -a 0 -x {5.0 0.0 11 ------- null}
- -t 0.167692 -s 5 -d 6 -p ack -e 40 -c 0 -i 26 -a 0 -x {5.0 0.0 11 ------- null}
h -t 0.167692 -s 5 -d 6 -p ack -e 40 -c 0 -i 26 -a 0 -x {5.0 0.0 -1 ------- null}
d -t 0.167696 -s 4 -d 6 -p ack -e 40 -c 0 -i 26 -a 0 -x {5.0 0.0 11 ------- null}
d -t 0.167696 -s 3 -d 6 -p ack -e 40 -c 0 -i 26 -a 0 -x {5.0 0.0 11 ------- null}
d -t 0.167696 -s 2 -d 6 -p ack -e 40 -c 0 -i 26 -a 0 -x {5.0 0.0 11 ------- null}
d -t 0.167696 -s 1 -d 6 -p ack -e 40 -c 0 -i 26 -a 0 -x {5.0 0.0 11 ------- null}
r -t 0.168864 -s 6 -d 0 -p ack -e 40 -c 0 -i 24 -a 0 -x {5.0 0.0 9 ------- null}
h -t 0.168864 -s 0 -d 6 -p tcp -e 1040 -c 0 -i 33 -a 0 -x {0.0 5.0 19 ------- null}
h -t 0.168864 -s 0 -d 6 -p tcp -e 1040 -c 0 -i 34 -a 0 -x {0.0 5.0 20 ------- null}
+ -t 0.170032 -s 0 -d 6 -p tcp -e 1040 -c 0 -i 27 -a 0 -x {0.0 5.0 15 ------- null}
- -t 0.170032 -s 0 -d 6 -p tcp -e 1040 -c 0 -i 27 -a 0 -x {0.0 5.0 15 ------- null}
h -t 0.170032 -s 0 -d 6 -p tcp -e 1040 -c 0 -i 27 -a 0 -x {0.0 5.0 -1 ------- null}
+ -t 0.170032 -s 0 -d 6 -p tcp -e 1040 -c 0 -i 28 -a 0 -x {0.0 5.0 16 ------- null}
d -t 0.170036 -s 4 -d 6 -p tcp -e 1040 -c 0 -i 27 -a 0 -x {0.0 5.0 15 ------- null}
d -t 0.170036 -s 3 -d 6 -p tcp -e 1040 -c 0 -i 27 -a 0 -x {0.0 5.0 15 ------- null}
d -t 0.170036 -s 2 -d 6 -p tcp -e 1040 -c 0 -i 27 -a 0 -x {0.0 5.0 15 ------- null}
d -t 0.170036 -s 1 -d 6 -p tcp -e 1040 -c 0 -i 27 -a 0 -x {0.0 5.0 15 ------- null}
r -t 0.17094 -s 6 -d 5 -p tcp -e 1040 -c 0 -i 21 -a 0 -x {0.0 5.0 14 ------- null}
h -t 0.17094 -s 5 -d 6 -p ack -e 40 -c 0 -i 35 -a 0 -x {5.0 0.0 14 ------- null}
+ -t 0.172108 -s 5 -d 6 -p ack -e 40 -c 0 -i 29 -a 0 -x {5.0 0.0 12 ------- null}
- -t 0.172108 -s 5 -d 6 -p ack -e 40 -c 0 -i 29 -a 0 -x {5.0 0.0 12 ------- null}
h -t 0.172108 -s 5 -d 6 -p ack -e 40 -c 0 -i 29 -a 0 -x {5.0 0.0 -1 ------- null}
d -t 0.172112 -s 4 -d 6 -p ack -e 40 -c 0 -i 29 -a 0 -x {5.0 0.0 12 ------- null}
d -t 0.172112 -s 3 -d 6 -p ack -e 40 -c 0 -i 29 -a 0 -x {5.0 0.0 12 ------- null}
d -t 0.172112 -s 2 -d 6 -p ack -e 40 -c 0 -i 29 -a 0 -x {5.0 0.0 12 ------- null}
d -t 0.172112 -s 1 -d 6 -p ack -e 40 -c 0 -i 29 -a 0 -x {5.0 0.0 12 ------- null}
r -t 0.17328 -s 6 -d 0 -p ack -e 40 -c 0 -i 25 -a 0 -x {5.0 0.0 10 ------- null}
h -t 0.17328 -s 0 -d 6 -p tcp -e 1040 -c 0 -i 36 -a 0 -x {0.0 5.0 21 ------- null}
h -t 0.17328 -s 0 -d 6 -p tcp -e 1040 -c 0 -i 37 -a 0 -x {0.0 5.0 22 ------- null}
+ -t 0.174448 -s 0 -d 6 -p tcp -e 1040 -c 0 -i 30 -a 0 -x {0.0 5.0 17 ------- null}
+ -t 0.174448 -s 0 -d 6 -p tcp -e 1040 -c 0 -i 31 -a 0 -x {0.0 5.0 18 ------- null}
- -t 0.174448 -s 0 -d 6 -p tcp -e 1040 -c 0 -i 28 -a 0 -x {0.0 5.0 16 ------- null}
h -t 0.174448 -s 0 -d 6 -p tcp -e 1040 -c 0 -i 28 -a 0 -x {0.0 5.0 -1 ------- null}
d -t 0.174452 -s 4 -d 6 -p tcp -e 1040 -c 0 -i 28 -a 0 -x {0.0 5.0 16 ------- null}
d -t 0.174452 -s 3 -d 6 -p tcp -e 1040 -c 0 -i 28 -a 0 -x {0.0 5.0 16 ------- null}
d -t 0.174452 -s 2 -d 6 -p tcp -e 1040 -c 0 -i 28 -a 0 -x {0.0 5.0 16 ------- null}
d -t 0.174452 -s 1 -d 6 -p tcp -e 1040 -c 0 -i 28 -a 0 -x {0.0 5.0 16 ------- null}
+ -t 0.176524 -s 5 -d 6 -p ack -e 40 -c 0 -i 32 -a 0 -x {5.0 0.0 13 ------- null}
- -t 0.176524 -s 5 -d 6 -p ack -e 40 -c 0 -i 32 -a 0 -x {5.0 0.0 13 ------- null}
h -t 0.176524 -s 5 -d 6 -p ack -e 40 -c 0 -i 32 -a 0 -x {5.0 0.0 -1 ------- null}
d -t 0.176528 -s 4 -d 6 -p ack -e 40 -c 0 -i 32 -a 0 -x {5.0 0.0 13 ------- null}
d -t 0.176528 -s 3 -d 6 -p ack -e 40 -c 0 -i 32 -a 0 -x {5.0 0.0 13 ------- null}
d -t 0.176528 -s 2 -d 6 -p ack -e 40 -c 0 -i 32 -a 0 -x {5.0 0.0 13 ------- null}
d -t 0.176528 -s 1 -d 6 -p ack -e 40 -c 0 -i 32 -a 0 -x {5.0 0.0 13 ------- null}
r -t 0.177696 -s 6 -d 0 -p ack -e 40 -c 0 -i 26 -a 0 -x {5.0 0.0 11 ------- null}
h -t 0.177696 -s 0 -d 6 -p tcp -e 1040 -c 0 -i 38 -a 0 -x {0.0 5.0 23 ------- null}
h -t 0.177696 -s 0 -d 6 -p tcp -e 1040 -c 0 -i 39 -a 0 -x {0.0 5.0 24 ------- null}
+ -t 0.178864 -s 0 -d 6 -p tcp -e 1040 -c 0 -i 33 -a 0 -x {0.0 5.0 19 ------- null}
+ -t 0.178864 -s 0 -d 6 -p tcp -e 1040 -c 0 -i 34 -a 0 -x {0.0 5.0 20 ------- null}
- -t 0.178864 -s 0 -d 6 -p tcp -e 1040 -c 0 -i 30 -a 0 -x {0.0 5.0 17 ------- null}
h -t 0.178864 -s 0 -d 6 -p tcp -e 1040 -c 0 -i 30 -a 0 -x {0.0 5.0 -1 ------- null}
d -t 0.178868 -s 4 -d 6 -p tcp -e 1040 -c 0 -i 30 -a 0 -x {0.0 5.0 17 ------- null}
d -t 0.178868 -s 3 -d 6 -p tcp -e 1040 -c 0 -i 30 -a 0 -x {0.0 5.0 17 ------- null}
d -t 0.178868 -s 2 -d 6 -p tcp -e 1040 -c 0 -i 30 -a 0 -x {0.0 5.0 17 ------- null}
d -t 0.178868 -s 1 -d 6 -p tcp -e 1040 -c 0 -i 30 -a 0 -x {0.0 5.0 17 ------- null}
r -t 0.180036 -s 6 -d 5 -p tcp -e 1040 -c 0 -i 27 -a 0 -x {0.0 5.0 15 ------- null}
h -t 0.180036 -s 5 -d 6 -p ack -e 40 -c 0 -i 40 -a 0 -x {5.0 0.0 15 ------- null}
+ -t 0.18094 -s 5 -d 6 -p ack -e 40 -c 0 -i 35 -a 0 -x {5.0 0.0 14 ------- null}
- -t 0.18094 -s 5 -d 6 -p ack -e 40 -c 0 -i 35 -a 0 -x {5.0 0.0 14 ------- null}
h -t 0.18094 -s 5 -d 6 -p ack -e 40 -c 0 -i 35 -a 0 -x {5.0 0.0 -1 ------- null}
d -t 0.180944 -s 4 -d 6 -p ack -e 40 -c 0 -i 35 -a 0 -x {5.0 0.0 14 ------- null}
d -t 0.180944 -s 3 -d 6 -p ack -e 40 -c 0 -i 35 -a 0 -x {5.0 0.0 14 ------- null}
d -t 0.180944 -s 2 -d 6 -p ack -e 40 -c 0 -i 35 -a 0 -x {5.0 0.0 14 ------- null}
d -t 0.180944 -s 1 -d 6 -p ack -e 40 -c 0 -i 35 -a 0 -x {5.0 0.0 14 ------- null}
r -t 0.182112 -s 6 -d 0 -p ack -e 40 -c 0 -i 29 -a 0 -x {5.0 0.0 12 ------- null}
h -t 0.182112 -s 0 -d 6 -p tcp -e 1040 -c 0 -i 41 -a 0 -x {0.0 5.0 25 ------- null}
h -t 0.182112 -s 0 -d 6 -p tcp -e 1040 -c 0 -i 42 -a 0 -x {0.0 5.0 26 ------- null}
+ -t 0.18328 -s 0 -d 6 -p tcp -e 1040 -c 0 -i 36 -a 0 -x {0.0 5.0 21 ------- null}
+ -t 0.18328 -s 0 -d 6 -p tcp -e 1040 -c 0 -i 37 -a 0 -x {0.0 5.0 22 ------- null}
- -t 0.18328 -s 0 -d 6 -p tcp -e 1040 -c 0 -i 31 -a 0 -x {0.0 5.0 18 ------- null}
h -t 0.18328 -s 0 -d 6 -p tcp -e 1040 -c 0 -i 31 -a 0 -x {0.0 5.0 -1 ------- null}
d -t 0.183284 -s 4 -d 6 -p tcp -e 1040 -c 0 -i 31 -a 0 -x {0.0 5.0 18 ------- null}
d -t 0.183284 -s 3 -d 6 -p tcp -e 1040 -c 0 -i 31 -a 0 -x {0.0 5.0 18 ------- null}
d -t 0.183284 -s 2 -d 6 -p tcp -e 1040 -c 0 -i 31 -a 0 -x {0.0 5.0 18 ------- null}
d -t 0.183284 -s 1 -d 6 -p tcp -e 1040 -c 0 -i 31 -a 0 -x {0.0 5.0 18 ------- null}
r -t 0.184452 -s 6 -d 5 -p tcp -e 1040 -c 0 -i 28 -a 0 -x {0.0 5.0 16 ------- null}
h -t 0.184452 -s 5 -d 6 -p ack -e 40 -c 0 -i 43 -a 0 -x {5.0 0.0 16 ------- null}
r -t 0.186528 -s 6 -d 0 -p ack -e 40 -c 0 -i 32 -a 0 -x {5.0 0.0 13 ------- null}
h -t 0.186528 -s 0 -d 6 -p tcp -e 1040 -c 0 -i 44 -a 0 -x {0.0 5.0 27 ------- null}
h -t 0.186528 -s 0 -d 6 -p tcp -e 1040 -c 0 -i 45 -a 0 -x {0.0 5.0 28 ------- null}
+ -t 0.187696 -s 0 -d 6 -p tcp -e 1040 -c 0 -i 38 -a 0 -x {0.0 5.0 23 ------- null}
+ -t 0.187696 -s 0 -d 6 -p tcp -e 1040 -c 0 -i 39 -a 0 -x {0.0 5.0 24 ------- null}
- -t 0.187696 -s 0 -d 6 -p tcp -e 1040 -c 0 -i 33 -a 0 -x {0.0 5.0 19 ------- null}
h -t 0.187696 -s 0 -d 6 -p tcp -e 1040 -c 0 -i 33 -a 0 -x {0.0 5.0 -1 ------- null}
d -t 0.1877 -s 4 -d 6 -p tcp -e 1040 -c 0 -i 33 -a 0 -x {0.0 5.0 19 ------- null}
d -t 0.1877 -s 3 -d 6 -p tcp -e 1040 -c 0 -i 33 -a 0 -x {0.0 5.0 19 ------- null}
d -t 0.1877 -s 2 -d 6 -p tcp -e 1040 -c 0 -i 33 -a 0 -x {0.0 5.0 19 ------- null}
d -t 0.1877 -s 1 -d 6 -p tcp -e 1040 -c 0 -i 33 -a 0 -x {0.0 5.0 19 ------- null}
r -t 0.188868 -s 6 -d 5 -p tcp -e 1040 -c 0 -i 30 -a 0 -x {0.0 5.0 17 ------- null}
h -t 0.188868 -s 5 -d 6 -p ack -e 40 -c 0 -i 46 -a 0 -x {5.0 0.0 17 ------- null}
+ -t 0.190036 -s 5 -d 6 -p ack -e 40 -c 0 -i 40 -a 0 -x {5.0 0.0 15 ------- null}
- -t 0.190036 -s 5 -d 6 -p ack -e 40 -c 0 -i 40 -a 0 -x {5.0 0.0 15 ------- null}
h -t 0.190036 -s 5 -d 6 -p ack -e 40 -c 0 -i 40 -a 0 -x {5.0 0.0 -1 ------- null}
d -t 0.19004 -s 4 -d 6 -p ack -e 40 -c 0 -i 40 -a 0 -x {5.0 0.0 15 ------- null}
d -t 0.19004 -s 3 -d 6 -p ack -e 40 -c 0 -i 40 -a 0 -x {5.0 0.0 15 ------- null}
d -t 0.19004 -s 2 -d 6 -p ack -e 40 -c 0 -i 40 -a 0 -x {5.0 0.0 15 ------- null}
d -t 0.19004 -s 1 -d 6 -p ack -e 40 -c 0 -i 40 -a 0 -x {5.0 0.0 15 ------- null}
r -t 0.190944 -s 6 -d 0 -p ack -e 40 -c 0 -i 35 -a 0 -x {5.0 0.0 14 ------- null}
h -t 0.190944 -s 0 -d 6 -p tcp -e 1040 -c 0 -i 47 -a 0 -x {0.0 5.0 29 ------- null}
h -t 0.190944 -s 0 -d 6 -p tcp -e 1040 -c 0 -i 48 -a 0 -x {0.0 5.0 30 ------- null}
+ -t 0.192112 -s 0 -d 6 -p tcp -e 1040 -c 0 -i 41 -a 0 -x {0.0 5.0 25 ------- null}
+ -t 0.192112 -s 0 -d 6 -p tcp -e 1040 -c 0 -i 42 -a 0 -x {0.0 5.0 26 ------- null}
- -t 0.192112 -s 0 -d 6 -p tcp -e 1040 -c 0 -i 34 -a 0 -x {0.0 5.0 20 ------- null}
h -t 0.192112 -s 0 -d 6 -p tcp -e 1040 -c 0 -i 34 -a 0 -x {0.0 5.0 -1 ------- null}
d -t 0.192116 -s 4 -d 6 -p tcp -e 1040 -c 0 -i 34 -a 0 -x {0.0 5.0 20 ------- null}
d -t 0.192116 -s 3 -d 6 -p tcp -e 1040 -c 0 -i 34 -a 0 -x {0.0 5.0 20 ------- null}
d -t 0.192116 -s 2 -d 6 -p tcp -e 1040 -c 0 -i 34 -a 0 -x {0.0 5.0 20 ------- null}
d -t 0.192116 -s 1 -d 6 -p tcp -e 1040 -c 0 -i 34 -a 0 -x {0.0 5.0 20 ------- null}
r -t 0.193284 -s 6 -d 5 -p tcp -e 1040 -c 0 -i 31 -a 0 -x {0.0 5.0 18 ------- null}
h -t 0.193284 -s 5 -d 6 -p ack -e 40 -c 0 -i 49 -a 0 -x {5.0 0.0 18 ------- null}
+ -t 0.194452 -s 5 -d 6 -p ack -e 40 -c 0 -i 43 -a 0 -x {5.0 0.0 16 ------- null}
- -t 0.194452 -s 5 -d 6 -p ack -e 40 -c 0 -i 43 -a 0 -x {5.0 0.0 16 ------- null}
h -t 0.194452 -s 5 -d 6 -p ack -e 40 -c 0 -i 43 -a 0 -x {5.0 0.0 -1 ------- null}
d -t 0.194456 -s 4 -d 6 -p ack -e 40 -c 0 -i 43 -a 0 -x {5.0 0.0 16 ------- null}
d -t 0.194456 -s 3 -d 6 -p ack -e 40 -c 0 -i 43 -a 0 -x {5.0 0.0 16 ------- null}
d -t 0.194456 -s 2 -d 6 -p ack -e 40 -c 0 -i 43 -a 0 -x {5.0 0.0 16 ------- null}
d -t 0.194456 -s 1 -d 6 -p ack -e 40 -c 0 -i 43 -a 0 -x {5.0 0.0 16 ------- null}
+ -t 0.196528 -s 0 -d 6 -p tcp -e 1040 -c 0 -i 44 -a 0 -x {0.0 5.0 27 ------- null}
+ -t 0.196528 -s 0 -d 6 -p tcp -e 1040 -c 0 -i 45 -a 0 -x {0.0 5.0 28 ------- null}